 Entering Gaussian System, Link 0=g16
 Input=benzene.com
 Output=benzene.log
 Initial command:
 /usr/local/g16reva03/legacy_cpu/g16/l1.exe "/scratch/global/g16/Gau-23944.inp" -scrdir="/scratch/global/g16/"
 Entering Link 1 = /usr/local/g16reva03/legacy_cpu/g16/l1.exe PID=     23945.
  
 Copyright (c) 1988,1990,1992,1993,1995,1998,2003,2009,2016,
            Gaussian, Inc.  All Rights Reserved.
  
 This is part of the Gaussian(R) 16 program.  It is based on
 the Gaussian(R) 09 system (copyright 2009, Gaussian, Inc.),
 the Gaussian(R) 03 system (copyright 2003, Gaussian, Inc.),
 the Gaussian(R) 98 system (copyright 1998, Gaussian, Inc.),
 the Gaussian(R) 94 system (copyright 1995, Gaussian, Inc.),
 the Gaussian 92(TM) system (copyright 1992, Gaussian, Inc.),
 the Gaussian 90(TM) system (copyright 1990, Gaussian, Inc.),
 the Gaussian 88(TM) system (copyright 1988, Gaussian, Inc.),
 the Gaussian 86(TM) system (copyright 1986, Carnegie Mellon
 University), and the Gaussian 82(TM) system (copyright 1983,
 Carnegie Mellon University). Gaussian is a federally registered
 trademark of Gaussian, Inc.
  
 This software contains proprietary and confidential information,
 including trade secrets, belonging to Gaussian, Inc.
  
 This software is provided under written license and may be
 used, copied, transmitted, or stored only in accord with that
 written license.
  
 The following legend is applicable only to US Government
 contracts under FAR:
  
                    RESTRICTED RIGHTS LEGEND
  
 Use, reproduction and disclosure by the US Government is
 subject to restrictions as set forth in subparagraphs (a)
 and (c) of the Commercial Computer Software - Restricted
 Rights clause in FAR 52.227-19.
  
 Gaussian, Inc.
 340 Quinnipiac St., Bldg. 40, Wallingford CT 06492
  
  
 ---------------------------------------------------------------
 Warning -- This program may not be used in any manner that
 competes with the business of Gaussian, Inc. or will provide
 assistance to any competitor of Gaussian, Inc.  The licensee
 of this program is prohibited from giving any competitor of
 Gaussian, Inc. access to this program.  By using this program,
 the user acknowledges that Gaussian, Inc. is engaged in the
 business of creating and licensing software in the field of
 computational chemistry and represents and warrants to the
 licensee that it is not a competitor of Gaussian, Inc. and that
 it will not use this program in any manner prohibited above.
 ---------------------------------------------------------------
  

 Cite this work as:
 Gaussian 16, Revision A.03,
 M. J. Frisch, G. W. Trucks, H. B. Schlegel, G. E. Scuseria, 
 M. A. Robb, J. R. Cheeseman, G. Scalmani, V. Barone, 
 G. A. Petersson, H. Nakatsuji, X. Li, M. Caricato, A. V. Marenich, 
 J. Bloino, B. G. Janesko, R. Gomperts, B. Mennucci, H. P. Hratchian, 
 J. V. Ortiz, A. F. Izmaylov, J. L. Sonnenberg, D. Williams-Young, 
 F. Ding, F. Lipparini, F. Egidi, J. Goings, B. Peng, A. Petrone, 
 T. Henderson, D. Ranasinghe, V. G. Zakrzewski, J. Gao, N. Rega, 
 G. Zheng, W. Liang, M. Hada, M. Ehara, K. Toyota, R. Fukuda, 
 J. Hasegawa, M. Ishida, T. Nakajima, Y. Honda, O. Kitao, H. Nakai, 
 T. Vreven, K. Throssell, J. A. Montgomery, Jr., J. E. Peralta, 
 F. Ogliaro, M. J. Bearpark, J. J. Heyd, E. N. Brothers, K. N. Kudin, 
 V. N. Staroverov, T. A. Keith, R. Kobayashi, J. Normand, 
 K. Raghavachari, A. P. Rendell, J. C. Burant, S. S. Iyengar, 
 J. Tomasi, M. Cossi, J. M. Millam, M. Klene, C. Adamo, R. Cammi, 
 J. W. Ochterski, R. L. Martin, K. Morokuma, O. Farkas, 
 J. B. Foresman, and D. J. Fox, Gaussian, Inc., Wallingford CT, 2016.
 
 ******************************************
 Gaussian 16:  EM64L-G16RevA.03 25-Dec-2016
                 4-Dec-2021 
 ******************************************
 ------------------------------------------------
 #P rhf nosymm output=matrix int=noraf scf=conven
 ------------------------------------------------
 1/38=1,172=1/1;
 2/12=2,15=1,17=6,18=5,40=1/2;
 3/25=20,28=1,30=1,116=1/1,2,3,8,20;
 4//1;
 5/5=1,29=1/2;
 6/7=2,8=2,9=2,10=2,28=1/1;
 99/5=1,6=100000,9=1/99;
 Leave Link    1 at Sat Dec  4 17:25:34 2021, MaxMem=           0 cpu:               0.1 elap:               0.2
 (Enter /usr/local/g16reva03/legacy_cpu/g16/l101.exe)
 ----------------
 Benzene_Molecule
 ----------------
 Symbolic Z-matrix:
 Charge =  0 Multiplicity = 1
 C
 C                    1    B1
 C                    2    B2       1    A1
 C                    3    B3       2    A2       1    D1       0
 C                    4    B4       3    A3       2    D2       0
 C                    1    B5       2    A4       3    D3       0
 H                    1    B6       6    A5       5    D4       0
 H                    2    B7       1    A6       6    D5       0
 H                    3    B8       2    A7       1    D6       0
 H                    4    B9       3    A8       2    D7       0
 H                    5    B10      4    A9       3    D8       0
 H                    6    B11      1    A10      2    D9       0
       Variables:
  B1                    1.39516                  
  B2                    1.39471                  
  B3                    1.39543                  
  B4                    1.39483                  
  B5                    1.39483                  
  B6                    1.09961                  
  B7                    1.09966                  
  B8                    1.09968                  
  B9                    1.09968                  
  B10                   1.09976                  
  B11                   1.0996                   
  A1                  120.00863                  
  A2                  119.99416                  
  A3                  119.99399                  
  A4                  119.99846                  
  A5                  120.00432                  
  A6                  119.98077                  
  A7                  120.01279                  
  A8                  119.98114                  
  A9                  120.01134                  
  A10                 120.008                    
  D1                   -0.05684                  
  D2                    0.03411                  
  D3                    0.03235                  
  D4                 -179.97984                  
  D5                  179.95325                  
  D6                  179.96185                  
  D7                 -179.99644                  
  D8                 -179.99951                  
  D9                  179.98918                  
 
 ITRead=  0  0  0  0  0  0  0  0  0  0  0  0
 MicOpt= -1 -1 -1 -1 -1 -1 -1 -1 -1 -1 -1 -1
 NAtoms=     12 NQM=       12 NQMF=       0 NMMI=      0 NMMIF=      0
                NMic=       0 NMicF=      0.
                    Isotopes and Nuclear Properties:
 (Nuclear quadrupole moments (NQMom) in fm**2, nuclear magnetic moments (NMagM)
  in nuclear magnetons)

  Atom         1           2           3           4           5           6           7           8           9          10
 IAtWgt=          12          12          12          12          12          12           1           1           1           1
 AtmWgt=  12.0000000  12.0000000  12.0000000  12.0000000  12.0000000  12.0000000   1.0078250   1.0078250   1.0078250   1.0078250
 NucSpn=           0           0           0           0           0           0           1           1           1           1
 AtZEff=  -0.0000000  -0.0000000  -0.0000000  -0.0000000  -0.0000000  -0.0000000  -0.0000000  -0.0000000  -0.0000000  -0.0000000
 NQMom=    0.0000000   0.0000000   0.0000000   0.0000000   0.0000000   0.0000000   0.0000000   0.0000000   0.0000000   0.0000000
 NMagM=    0.0000000   0.0000000   0.0000000   0.0000000   0.0000000   0.0000000   2.7928460   2.7928460   2.7928460   2.7928460
 AtZNuc=   6.0000000   6.0000000   6.0000000   6.0000000   6.0000000   6.0000000   1.0000000   1.0000000   1.0000000   1.0000000

  Atom        11          12
 IAtWgt=           1           1
 AtmWgt=   1.0078250   1.0078250
 NucSpn=           1           1
 AtZEff=  -0.0000000  -0.0000000
 NQMom=    0.0000000   0.0000000
 NMagM=    2.7928460   2.7928460
 AtZNuc=   1.0000000   1.0000000
 Leave Link  101 at Sat Dec  4 17:25:34 2021, MaxMem=   104857600 cpu:               0.2 elap:               0.2
 (Enter /usr/local/g16reva03/legacy_cpu/g16/l202.exe)
                          Input orientation:                          
 ---------------------------------------------------------------------
 Center     Atomic      Atomic             Coordinates (Angstroms)
 Number     Number       Type             X           Y           Z
 ---------------------------------------------------------------------
      1          6           0        0.000000    0.000000    0.000000
      2          6           0        0.000000    0.000000    1.395160
      3          6           0        1.207751    0.000000    2.092698
      4          6           0        2.416260   -0.001199    1.395044
      5          6           0        2.416182   -0.001678    0.000219
      6          6           0        1.207976   -0.000682   -0.697382
      7          1           0       -0.952317    0.000450   -0.549759
      8          1           0       -0.952513    0.001315    1.944668
      9          1           0        1.207831    0.000634    3.192378
     10          1           0        3.368403   -0.001258    1.945244
     11          1           0        3.368463   -0.002631   -0.549903
     12          1           0        1.208159   -0.000862   -1.796986
 ---------------------------------------------------------------------
                    Distance matrix (angstroms):
                    1          2          3          4          5
     1  C    0.000000
     2  C    1.395160   0.000000
     3  C    2.416205   1.394712   0.000000
     4  C    2.790065   2.416260   1.395427   0.000000
     5  C    2.416183   2.789946   2.416356   1.394825   0.000000
     6  C    1.394829   2.416183   2.790080   2.416236   1.395138
     7  H    1.099610   2.165553   3.412986   3.889675   3.413102
     8  H    2.165414   1.099655   2.165330   3.413316   3.889601
     9  H    3.413229   2.165375   1.099680   2.165806   3.413209
    10  H    3.889745   3.413024   2.165678   1.099680   2.165606
    11  H    3.413055   3.889707   3.413506   2.165528   1.099761
    12  H    2.165365   3.413128   3.889684   3.412999   2.165471
                    6          7          8          9         10
     6  C    0.000000
     7  H    2.165331   0.000000
     8  H    3.412938   2.494427   0.000000
     9  H    3.889760   4.320860   2.494768   0.000000
    10  H    3.413344   4.989355   4.320917   2.494678   0.000000
    11  H    2.165516   4.320781   4.989362   4.321228   2.495147
    12  H    1.099604   2.494641   4.320704   4.989364   4.320988
                   11         12
    11  H    0.000000
    12  H    2.494420   0.000000
 Symmetry turned off by external request.
 Stoichiometry    C6H6
 Framework group  C1[X(C6H6)]
 Deg. of freedom    30
 Full point group                 C1      NOp   1
 Rotational constants (GHZ):           5.6865651           5.6862640           2.8432074
 Leave Link  202 at Sat Dec  4 17:25:34 2021, MaxMem=   104857600 cpu:               0.0 elap:               0.0
 (Enter /usr/local/g16reva03/legacy_cpu/g16/l301.exe)
 Standard basis: STO-3G (5D, 7F)
 Ernie: Thresh=  0.10000D-02 Tol=  0.10000D-05 Strict=F.
    36 basis functions,   108 primitive gaussians,    36 cartesian basis functions
    21 alpha electrons       21 beta electrons
       nuclear repulsion energy       203.0307492911 Hartrees.
 IExCor=    0 DFT=F Ex=HF Corr=None ExCW=0 ScaHFX=  1.000000
 ScaDFX=  1.000000  1.000000  1.000000  1.000000 ScalE2=  1.000000  1.000000
 IRadAn=      5 IRanWt=     -1 IRanGd=            0 ICorTp=0 IEmpDi=  4
 NAtoms=   12 NActive=   12 NUniq=   12 SFac= 1.00D+00 NAtFMM=   60 NAOKFM=F Big=F
 Integral buffers will be    131072 words long.
 Regular integral format.
 Two-electron integral symmetry is turned off.
 Leave Link  301 at Sat Dec  4 17:25:35 2021, MaxMem=   104857600 cpu:               0.1 elap:               0.1
 (Enter /usr/local/g16reva03/legacy_cpu/g16/l302.exe)
 NPDir=0 NMtPBC=     1 NCelOv=     1 NCel=       1 NClECP=     1 NCelD=      1
         NCelK=      1 NCelE2=     1 NClLst=     1 CellRange=     0.0.
 One-electron integrals computed using PRISM.
 NBasis=    36 RedAO= T EigKep=  1.72D-01  NBF=    36
 NBsUse=    36 1.00D-06 EigRej= -1.00D+00 NBFU=    36
 Leave Link  302 at Sat Dec  4 17:25:35 2021, MaxMem=   104857600 cpu:               0.2 elap:               0.2
 (Enter /usr/local/g16reva03/legacy_cpu/g16/l303.exe)
 DipDrv:  MaxL=1.
 Leave Link  303 at Sat Dec  4 17:25:35 2021, MaxMem=   104857600 cpu:               0.1 elap:               0.1
 (Enter /usr/local/g16reva03/legacy_cpu/g16/l308.exe)
 Leave Link  308 at Sat Dec  4 17:25:35 2021, MaxMem=   104857600 cpu:               0.1 elap:               0.1
 (Enter /usr/local/g16reva03/legacy_cpu/g16/l320.exe)
 Enter DskPsm, NBasis=  36 NBas6D=  36 NShell=  18 IDoSP=4.
 Out2e will use a cutoff of  1.00D-10
 FoFCou: FMM=F IPFlag=           0 FMFlag=           0 FMFlg1=           0
         NFxFlg=           0 DoJE=F BraDBF=F KetDBF=F FulRan=T
         wScrn=  0.000000 ICntrl=       600 IOpCl=  9 I1Cent=           0 NGrid=           0
         NMat0=    0 NMatS0=      0 NMatT0=    0 NMatD0=    0 NMtDS0=    0 NMtDT0=    0
 Symmetry not used in FoFCou.
       208034 integrals produced for a total of       208034.
 Leave Link  320 at Sat Dec  4 17:25:35 2021, MaxMem=   104857600 cpu:               0.3 elap:               0.3
 (Enter /usr/local/g16reva03/legacy_cpu/g16/l401.exe)
 ExpMin= 1.69D-01 ExpMax= 7.16D+01 ExpMxC= 7.16D+01 IAcc=3 IRadAn=         5 AccDes= 0.00D+00
 Harris functional with IExCor=  205 and IRadAn=       5 diagonalized for initial guess.
 HarFok:  IExCor=  205 AccDes= 0.00D+00 IRadAn=         5 IDoV= 1 UseB2=F ITyADJ=14
 ICtDFT=  3500011 ScaDFX=  1.000000  1.000000  1.000000  1.000000
 FoFCou: FMM=F IPFlag=           0 FMFlag=      100000 FMFlg1=           0
         NFxFlg=           0 DoJE=T BraDBF=F KetDBF=T FulRan=T
         wScrn=  0.000000 ICntrl=       500 IOpCl=  0 I1Cent=   200000004 NGrid=           0
         NMat0=    1 NMatS0=      1 NMatT0=    0 NMatD0=    1 NMtDS0=    0 NMtDT0=    0
 Symmetry not used in FoFCou.
 Harris En= -228.205281575121    
 JPrj=0 DoOrth=F DoCkMO=F.
 Leave Link  401 at Sat Dec  4 17:25:37 2021, MaxMem=   104857600 cpu:               1.6 elap:               1.6
 (Enter /usr/local/g16reva03/legacy_cpu/g16/l502.exe)
 Two-electron integral symmetry not used.
 Closed shell SCF:
 Using DIIS extrapolation, IDIIS=  1040.
 Unsorted integral processing.
 NGot=   104857600 LenX=   104591948 LenY=   104590211
 Requested convergence on RMS density matrix=1.00D-08 within 128 cycles.
 Requested convergence on MAX density matrix=1.00D-06.
 Requested convergence on             energy=1.00D-06.
 No special actions if energy rises.

 Cycle   1  Pass 1  IDiag  1:
 E= -227.806570021525    
 DIIS: error= 5.15D-02 at cycle   1 NSaved=   1.
 NSaved= 1 IEnMin= 1 EnMin= -227.806570021525     IErMin= 1 ErrMin= 5.15D-02
 ErrMax= 5.15D-02  0.00D+00 EMaxC= 1.00D-01 BMatC= 9.81D-02 BMatP= 9.81D-02
 IDIUse=3 WtCom= 4.85D-01 WtEn= 5.15D-01
 Coeff-Com:  0.100D+01
 Coeff-En:   0.100D+01
 Coeff:      0.100D+01
 Gap=     0.549 Goal=   None    Shift=    0.000
 GapD=    0.549 DampG=2.000 DampE=0.500 DampFc=1.0000 IDamp=-1.
 RMSDP=1.02D-02 MaxDP=8.66D-02              OVMax= 0.00D+00

 Cycle   2  Pass 1  IDiag  1:
 E= -227.888749977281     Delta-E=       -0.082179955757 Rises=F Damp=F
 DIIS: error= 4.61D-03 at cycle   2 NSaved=   2.
 NSaved= 2 IEnMin= 2 EnMin= -227.888749977281     IErMin= 2 ErrMin= 4.61D-03
 ErrMax= 4.61D-03  0.00D+00 EMaxC= 1.00D-01 BMatC= 6.87D-04 BMatP= 9.81D-02
 IDIUse=3 WtCom= 9.54D-01 WtEn= 4.61D-02
 Coeff-Com: -0.202D-01 0.102D+01
 Coeff-En:   0.000D+00 0.100D+01
 Coeff:     -0.193D-01 0.102D+01
 Gap=     0.549 Goal=   None    Shift=    0.000
 RMSDP=9.29D-04 MaxDP=4.20D-03 DE=-8.22D-02 OVMax= 0.00D+00

 Cycle   3  Pass 1  IDiag  1:
 E= -227.889392961850     Delta-E=       -0.000642984569 Rises=F Damp=F
 DIIS: error= 6.68D-04 at cycle   3 NSaved=   3.
 NSaved= 3 IEnMin= 3 EnMin= -227.889392961850     IErMin= 3 ErrMin= 6.68D-04
 ErrMax= 6.68D-04  0.00D+00 EMaxC= 1.00D-01 BMatC= 1.02D-05 BMatP= 6.87D-04
 IDIUse=3 WtCom= 9.93D-01 WtEn= 6.68D-03
 Coeff-Com: -0.419D-02-0.303D-01 0.103D+01
 Coeff-En:   0.000D+00 0.000D+00 0.100D+01
 Coeff:     -0.416D-02-0.301D-01 0.103D+01
 Gap=     0.549 Goal=   None    Shift=    0.000
 RMSDP=1.40D-04 MaxDP=6.76D-04 DE=-6.43D-04 OVMax= 0.00D+00

 Cycle   4  Pass 1  IDiag  1:
 E= -227.889409386093     Delta-E=       -0.000016424243 Rises=F Damp=F
 DIIS: error= 9.54D-05 at cycle   4 NSaved=   4.
 NSaved= 4 IEnMin= 4 EnMin= -227.889409386093     IErMin= 4 ErrMin= 9.54D-05
 ErrMax= 9.54D-05  0.00D+00 EMaxC= 1.00D-01 BMatC= 2.89D-07 BMatP= 1.02D-05
 IDIUse=1 WtCom= 1.00D+00 WtEn= 0.00D+00
 Coeff-Com:  0.900D-03-0.611D-02-0.194D+00 0.120D+01
 Coeff:      0.900D-03-0.611D-02-0.194D+00 0.120D+01
 Gap=     0.549 Goal=   None    Shift=    0.000
 RMSDP=3.11D-05 MaxDP=2.00D-04 DE=-1.64D-05 OVMax= 0.00D+00

 Cycle   5  Pass 1  IDiag  1:
 E= -227.889409903249     Delta-E=       -0.000000517156 Rises=F Damp=F
 DIIS: error= 5.87D-06 at cycle   5 NSaved=   5.
 NSaved= 5 IEnMin= 5 EnMin= -227.889409903249     IErMin= 5 ErrMin= 5.87D-06
 ErrMax= 5.87D-06  0.00D+00 EMaxC= 1.00D-01 BMatC= 1.17D-09 BMatP= 2.89D-07
 IDIUse=1 WtCom= 1.00D+00 WtEn= 0.00D+00
 Coeff-Com: -0.183D-03 0.128D-02 0.417D-01-0.274D+00 0.123D+01
 Coeff:     -0.183D-03 0.128D-02 0.417D-01-0.274D+00 0.123D+01
 Gap=     0.549 Goal=   None    Shift=    0.000
 RMSDP=2.04D-06 MaxDP=2.05D-05 DE=-5.17D-07 OVMax= 0.00D+00

 Cycle   6  Pass 1  IDiag  1:
 E= -227.889409905266     Delta-E=       -0.000000002017 Rises=F Damp=F
 DIIS: error= 1.85D-06 at cycle   6 NSaved=   6.
 NSaved= 6 IEnMin= 6 EnMin= -227.889409905266     IErMin= 6 ErrMin= 1.85D-06
 ErrMax= 1.85D-06  0.00D+00 EMaxC= 1.00D-01 BMatC= 6.38D-11 BMatP= 1.17D-09
 IDIUse=1 WtCom= 1.00D+00 WtEn= 0.00D+00
 Coeff-Com: -0.638D-04 0.439D-03 0.144D-01-0.940D-01 0.364D+00 0.715D+00
 Coeff:     -0.638D-04 0.439D-03 0.144D-01-0.940D-01 0.364D+00 0.715D+00
 Gap=     0.549 Goal=   None    Shift=    0.000
 RMSDP=3.27D-07 MaxDP=2.93D-06 DE=-2.02D-09 OVMax= 0.00D+00

 Cycle   7  Pass 1  IDiag  1:
 E= -227.889409905367     Delta-E=       -0.000000000101 Rises=F Damp=F
 DIIS: error= 6.35D-07 at cycle   7 NSaved=   7.
 NSaved= 7 IEnMin= 7 EnMin= -227.889409905367     IErMin= 7 ErrMin= 6.35D-07
 ErrMax= 6.35D-07  0.00D+00 EMaxC= 1.00D-01 BMatC= 3.15D-12 BMatP= 6.38D-11
 IDIUse=1 WtCom= 1.00D+00 WtEn= 0.00D+00
 Coeff-Com:  0.258D-04-0.180D-03-0.586D-02 0.383D-01-0.157D+00-0.176D+00
 Coeff-Com:  0.130D+01
 Coeff:      0.258D-04-0.180D-03-0.586D-02 0.383D-01-0.157D+00-0.176D+00
 Coeff:      0.130D+01
 Gap=     0.549 Goal=   None    Shift=    0.000
 RMSDP=1.67D-07 MaxDP=1.67D-06 DE=-1.01D-10 OVMax= 0.00D+00

 Cycle   8  Pass 1  IDiag  1:
 E= -227.889409905387     Delta-E=       -0.000000000020 Rises=F Damp=F
 DIIS: error= 2.65D-07 at cycle   8 NSaved=   8.
 NSaved= 8 IEnMin= 8 EnMin= -227.889409905387     IErMin= 8 ErrMin= 2.65D-07
 ErrMax= 2.65D-07  0.00D+00 EMaxC= 1.00D-01 BMatC= 5.58D-13 BMatP= 3.15D-12
 IDIUse=1 WtCom= 1.00D+00 WtEn= 0.00D+00
 Coeff-Com: -0.305D-05 0.220D-04 0.689D-03-0.458D-02 0.204D-01-0.959D-02
 Coeff-Com: -0.476D+00 0.147D+01
 Coeff:     -0.305D-05 0.220D-04 0.689D-03-0.458D-02 0.204D-01-0.959D-02
 Coeff:     -0.476D+00 0.147D+01
 Gap=     0.549 Goal=   None    Shift=    0.000
 RMSDP=9.60D-08 MaxDP=9.90D-07 DE=-1.97D-11 OVMax= 0.00D+00

 Cycle   9  Pass 1  IDiag  1:
 E= -227.889409905391     Delta-E=       -0.000000000004 Rises=F Damp=F
 DIIS: error= 7.89D-08 at cycle   9 NSaved=   9.
 NSaved= 9 IEnMin= 9 EnMin= -227.889409905391     IErMin= 9 ErrMin= 7.89D-08
 ErrMax= 7.89D-08  0.00D+00 EMaxC= 1.00D-01 BMatC= 6.85D-14 BMatP= 5.58D-13
 IDIUse=1 WtCom= 1.00D+00 WtEn= 0.00D+00
 Coeff-Com: -0.553D-05 0.386D-04 0.126D-02-0.823D-02 0.340D-01 0.335D-01
 Coeff-Com: -0.327D+00 0.206D+00 0.106D+01
 Coeff:     -0.553D-05 0.386D-04 0.126D-02-0.823D-02 0.340D-01 0.335D-01
 Coeff:     -0.327D+00 0.206D+00 0.106D+01
 Gap=     0.549 Goal=   None    Shift=    0.000
 RMSDP=3.59D-08 MaxDP=3.67D-07 DE=-3.52D-12 OVMax= 0.00D+00

 Cycle  10  Pass 1  IDiag  1:
 E= -227.889409905392     Delta-E=       -0.000000000001 Rises=F Damp=F
 DIIS: error= 5.10D-09 at cycle  10 NSaved=  10.
 NSaved=10 IEnMin=10 EnMin= -227.889409905392     IErMin=10 ErrMin= 5.10D-09
 ErrMax= 5.10D-09  0.00D+00 EMaxC= 1.00D-01 BMatC= 5.10D-16 BMatP= 6.85D-14
 IDIUse=1 WtCom= 1.00D+00 WtEn= 0.00D+00
 Coeff-Com:  0.371D-06-0.263D-05-0.825D-04 0.543D-03-0.222D-02-0.109D-02
 Coeff-Com:  0.290D-01-0.592D-01-0.387D-01 0.107D+01
 Coeff:      0.371D-06-0.263D-05-0.825D-04 0.543D-03-0.222D-02-0.109D-02
 Coeff:      0.290D-01-0.592D-01-0.387D-01 0.107D+01
 Gap=     0.549 Goal=   None    Shift=    0.000
 RMSDP=2.50D-09 MaxDP=2.45D-08 DE=-1.36D-12 OVMax= 0.00D+00

 SCF Done:  E(RHF) =  -227.889409905     A.U. after   10 cycles
            NFock= 10  Conv=0.25D-08     -V/T= 2.0088
 KE= 2.259062405992D+02 PE=-9.368915580054D+02 EE= 2.800651582097D+02
 Leave Link  502 at Sat Dec  4 17:25:37 2021, MaxMem=   104857600 cpu:               0.1 elap:               0.1
 (Enter /usr/local/g16reva03/legacy_cpu/g16/l601.exe)
 Copying SCF densities to generalized density rwf, IOpCl= 0 IROHF=0.

 **********************************************************************

            Population analysis using the SCF density.

 **********************************************************************

 Alpha  occ. eigenvalues --  -11.02930 -11.02930 -11.02927 -11.02894 -11.02894
 Alpha  occ. eigenvalues --  -11.02880  -1.08912  -0.95262  -0.95257  -0.76318
 Alpha  occ. eigenvalues --   -0.76312  -0.65724  -0.58760  -0.55243  -0.53041
 Alpha  occ. eigenvalues --   -0.53039  -0.45572  -0.42996  -0.42987  -0.27941
 Alpha  occ. eigenvalues --   -0.27934
 Alpha virt. eigenvalues --    0.26925   0.26934   0.50428   0.56473   0.63647
 Alpha virt. eigenvalues --    0.63660   0.70674   0.72600   0.72607   0.87495
 Alpha virt. eigenvalues --    0.87504   0.89400   0.89417   1.08778   1.14437
          Condensed to atoms (all electrons):
               1          2          3          4          5          6
     1  C    4.774907   0.506575  -0.030211  -0.011302  -0.030216   0.506927
     2  C    0.506575   4.774880   0.506979  -0.030213  -0.011301  -0.030217
     3  C   -0.030211   0.506979   4.774933   0.506480  -0.030205  -0.011300
     4  C   -0.011302  -0.030213   0.506480   4.774951   0.506946  -0.030211
     5  C   -0.030216  -0.011301  -0.030205   0.506946   4.774886   0.506582
     6  C    0.506927  -0.030217  -0.011300  -0.030211   0.506582   4.774908
     7  H    0.391148  -0.025058   0.001335   0.000028   0.001336  -0.025064
     8  H   -0.025069   0.391134  -0.025062   0.001336   0.000028   0.001336
     9  H    0.001336  -0.025061   0.391129  -0.025049   0.001334   0.000028
    10  H    0.000028   0.001335  -0.025060   0.391124  -0.025048   0.001335
    11  H    0.001336   0.000028   0.001335  -0.025054   0.391110  -0.025065
    12  H   -0.025061   0.001336   0.000028   0.001336  -0.025063   0.391148
               7          8          9         10         11         12
     1  C    0.391148  -0.025069   0.001336   0.000028   0.001336  -0.025061
     2  C   -0.025058   0.391134  -0.025061   0.001335   0.000028   0.001336
     3  C    0.001335  -0.025062   0.391129  -0.025060   0.001335   0.000028
     4  C    0.000028   0.001336  -0.025049   0.391124  -0.025054   0.001336
     5  C    0.001336   0.000028   0.001334  -0.025048   0.391110  -0.025063
     6  C   -0.025064   0.001336   0.000028   0.001335  -0.025065   0.391148
     7  H    0.602983  -0.003526  -0.000030   0.000002  -0.000030  -0.003526
     8  H   -0.003526   0.603021  -0.003526  -0.000030   0.000002  -0.000030
     9  H   -0.000030  -0.003526   0.602992  -0.003521  -0.000030   0.000002
    10  H    0.000002  -0.000030  -0.003521   0.602993  -0.003522  -0.000030
    11  H   -0.000030   0.000002  -0.000030  -0.003522   0.603039  -0.003526
    12  H   -0.003526  -0.000030   0.000002  -0.000030  -0.003526   0.602985
 Mulliken charges:
               1
     1  C   -0.060397
     2  C   -0.060416
     3  C   -0.060381
     4  C   -0.060370
     5  C   -0.060389
     6  C   -0.060408
     7  H    0.060403
     8  H    0.060388
     9  H    0.060396
    10  H    0.060394
    11  H    0.060378
    12  H    0.060403
 Sum of Mulliken charges =   0.00000
 Mulliken charges with hydrogens summed into heavy atoms:
               1
     1  C    0.000006
     2  C   -0.000029
     3  C    0.000015
     4  C    0.000024
     5  C   -0.000011
     6  C   -0.000006
 Electronic spatial extent (au):  <R**2>=            747.8477
 Charge=              0.0000 electrons
 Dipole moment (field-independent basis, Debye):
    X=              0.0001    Y=              0.0004    Z=              0.0001  Tot=              0.0004
 Quadrupole moment (field-independent basis, Debye-Ang):
   XX=            -31.1584   YY=            -35.1303   ZZ=            -31.1574
   XY=             -0.0024   XZ=              0.0006   YZ=              0.0022
 Traceless Quadrupole moment (field-independent basis, Debye-Ang):
   XX=              1.3236   YY=             -2.6483   ZZ=              1.3247
   XY=             -0.0024   XZ=              0.0006   YZ=              0.0022
 Octapole moment (field-independent basis, Debye-Ang**2):
  XXX=           -112.9238  YYY=              0.0596  ZZZ=            -65.2072  XYY=            -42.4385
  XXY=              0.0128  XXZ=            -21.7360  XZZ=            -37.6343  YZZ=              0.0227
  YYZ=            -24.5077  XYZ=              0.0008
 Hexadecapole moment (field-independent basis, Debye-Ang**3):
 XXXX=           -533.4101 YYYY=            -28.5485 ZZZZ=           -351.5516 XXXY=              0.1156
 XXXZ=            -78.7729 YYYX=              0.1540 YYYZ=              0.0065 ZZZX=            -78.7601
 ZZZY=              0.0216 XXYY=           -105.2584 XXZZ=           -147.4786 YYZZ=            -71.0901
 XXYZ=              0.0077 YYXZ=            -29.6051 ZZXY=              0.0455
 N-N= 2.030307492911D+02 E-N=-9.368915580204D+02  KE= 2.259062405992D+02
 No NMR shielding tensors so no spin-rotation constants.
 Leave Link  601 at Sat Dec  4 17:25:37 2021, MaxMem=   104857600 cpu:               0.1 elap:               0.2
 (Enter /usr/local/g16reva03/legacy_cpu/g16/l9999.exe)
 1\1\GINC-USER1\SP\RHF\STO-3G\C6H6\AMKINY01\04-Dec-2021\0\\#P rhf nosym
 m output=matrix int=noraf scf=conven\\Benzene_Molecule\\0,1\C\C,1,1.39
 516\C,2,1.39471206,1,120.00863221\C,3,1.39542701,2,119.99416459,1,-0.0
 5684321,0\C,4,1.39482508,3,119.99399231,2,0.03411439,0\C,1,1.39482907,
 2,119.9984568,3,0.03234809,0\H,1,1.09961031,6,120.00431986,5,-179.9798
 4142,0\H,2,1.0996553,1,119.98077039,6,179.95324796,0\H,3,1.09968019,2,
 120.01279489,1,179.96185208,0\H,4,1.09968011,3,119.98114211,2,-179.996
 43617,0\H,5,1.09976099,4,120.01134336,3,-179.99951388,0\H,6,1.09960403
 ,1,120.00799702,2,179.98917535,0\\Version=EM64L-G16RevA.03\HF=-227.889
 4099\RMSD=2.496e-09\Dipole=0.0000442,0.0001411,0.0000363\Quadrupole=0.
 9841007,-1.9689474,0.9848467,-0.0018045,0.0004396,0.0016441\PG=C01 [X(
 C6H6)]\\@


 CHEMISTRY BEGAN BY SAYING IT WOULD CHANGE THE BASER
 METALS INTO GOLD.  BY NOT DOING THAT IT HAS DONE MUCH
 GREATER THINGS.  --  RALPH WALDO EMERSON

 Writing WrtUnf unformatted file "benzene_Ang.mat"
 Gaussian matrix elements                                         Version   2 NLab=11 Len12L=8 Len4L=8
 Write SHELL TO ATOM MAP                   from file     0 offset           0 length                  18 to matrix element file.
 Write SHELL TYPES                         from file     0 offset           0 length                  18 to matrix element file.
 Write NUMBER OF PRIMITIVES PER SHELL      from file     0 offset           0 length                  18 to matrix element file.
 Write PRIMITIVE EXPONENTS                 from file     0 offset           0 length                  54 to matrix element file.
 Write CONTRACTION COEFFICIENTS            from file     0 offset           0 length                  54 to matrix element file.
 Write P(S=P) CONTRACTION COEFFICIENTS     from file     0 offset           0 length                  54 to matrix element file.
 Write COORDINATES OF EACH SHELL           from file     0 offset           0 length                  54 to matrix element file.
 Write BONDS PER ATOM                      from file     0 offset           0 length                  12 to matrix element file.
 Write BONDED ATOMS                        from file     0 offset           0 length                  24 to matrix element file.
 Write BOND TYPES                          from file     0 offset           0 length                  24 to matrix element file.
 Write GAUSSIAN SCALARS                    from file   501 offset           0 to matrix element file.
 Write INTEGER ISO                         from file     0 offset           0 length                  12 to matrix element file.
 Write INTEGER SPIN                        from file     0 offset           0 length                  12 to matrix element file.
 Write REAL ZEFFECTIVE                     from file     0 offset           0 length                  12 to matrix element file.
 Write REAL GFACTOR                        from file     0 offset           0 length                  12 to matrix element file.
 Write REAL ZNUCLEAR                       from file     0 offset           0 length                  12 to matrix element file.
 Write NUCLEAR GRADIENT                    from file 10584 offset           0 length                  36 to matrix element file.
 Array NUCLEAR FORCE CONSTANTS              on  file 10585 does not exist.
 Write ELECTRIC DIPOLE MOMENT              from file     0 offset           0 length                   3 to matrix element file.
 Write OVERLAP                             from file   514 offset           0 length                 666 to matrix element file.
 Write CORE HAMILTONIAN ALPHA              from file   515 offset           0 length                 666 to matrix element file.
 Write CORE HAMILTONIAN BETA               from file   515 offset         666 length                 666 to matrix element file.
 Write KINETIC ENERGY                      from file   516 offset           0 length                 666 to matrix element file.
 Write ORTHOGONAL BASIS                    from file   685 offset           0 length                1296 to matrix element file.
 Write DIPOLE INTEGRALS                    from file   518 offset           0 length                1998 to matrix element file.
 Write DIP VEL INTEGRALS                   from file   572 offset           0 length                1998 to matrix element file.
 Write R X DEL INTEGRALS                   from file   572 offset        1998 length                1998 to matrix element file.
 Write ALPHA ORBITAL ENERGIES              from file     0 offset           0 length                  36 to matrix element file.
 Write ALPHA MO COEFFICIENTS               from file 10524 offset           0 length                1296 to matrix element file.
 Write ALPHA DENSITY MATRIX                from file 10528 offset           0 length                 666 to matrix element file.
 Write ALPHA SCF DENSITY MATRIX            from file 10528 offset           0 length                 666 to matrix element file.
 Write ALPHA FOCK MATRIX                   from file 10536 offset           0 length                 666 to matrix element file.
 Write REGULAR 2E INTEGRALS                to matrix element file, NR=1 ITotal=      208034.
 Job cpu time:       0 days  0 hours  0 minutes  3.6 seconds.
 Elapsed time:       0 days  0 hours  0 minutes  3.7 seconds.
 File lengths (MBytes):  RWF=     72 Int=      4 D2E=      0 Chk=      8 Scr=      8
 Normal termination of Gaussian 16 at Sat Dec  4 17:25:38 2021.
