 Entering Gaussian System, Link 0=g16
 Input=bh3.com
 Output=bh3.log
 Initial command:
 /usr/local/g16reva03/legacy_cpu/g16/l1.exe "/scratch/global/g16/Gau-6621.inp" -scrdir="/scratch/global/g16/"
 Entering Link 1 = /usr/local/g16reva03/legacy_cpu/g16/l1.exe PID=      6622.
  
 Copyright (c) 1988,1990,1992,1993,1995,1998,2003,2009,2016,
            Gaussian, Inc.  All Rights Reserved.
  
 This is part of the Gaussian(R) 16 program.  It is based on
 the Gaussian(R) 09 system (copyright 2009, Gaussian, Inc.),
 the Gaussian(R) 03 system (copyright 2003, Gaussian, Inc.),
 the Gaussian(R) 98 system (copyright 1998, Gaussian, Inc.),
 the Gaussian(R) 94 system (copyright 1995, Gaussian, Inc.),
 the Gaussian 92(TM) system (copyright 1992, Gaussian, Inc.),
 the Gaussian 90(TM) system (copyright 1990, Gaussian, Inc.),
 the Gaussian 88(TM) system (copyright 1988, Gaussian, Inc.),
 the Gaussian 86(TM) system (copyright 1986, Carnegie Mellon
 University), and the Gaussian 82(TM) system (copyright 1983,
 Carnegie Mellon University). Gaussian is a federally registered
 trademark of Gaussian, Inc.
  
 This software contains proprietary and confidential information,
 including trade secrets, belonging to Gaussian, Inc.
  
 This software is provided under written license and may be
 used, copied, transmitted, or stored only in accord with that
 written license.
  
 The following legend is applicable only to US Government
 contracts under FAR:
  
                    RESTRICTED RIGHTS LEGEND
  
 Use, reproduction and disclosure by the US Government is
 subject to restrictions as set forth in subparagraphs (a)
 and (c) of the Commercial Computer Software - Restricted
 Rights clause in FAR 52.227-19.
  
 Gaussian, Inc.
 340 Quinnipiac St., Bldg. 40, Wallingford CT 06492
  
  
 ---------------------------------------------------------------
 Warning -- This program may not be used in any manner that
 competes with the business of Gaussian, Inc. or will provide
 assistance to any competitor of Gaussian, Inc.  The licensee
 of this program is prohibited from giving any competitor of
 Gaussian, Inc. access to this program.  By using this program,
 the user acknowledges that Gaussian, Inc. is engaged in the
 business of creating and licensing software in the field of
 computational chemistry and represents and warrants to the
 licensee that it is not a competitor of Gaussian, Inc. and that
 it will not use this program in any manner prohibited above.
 ---------------------------------------------------------------
  

 Cite this work as:
 Gaussian 16, Revision A.03,
 M. J. Frisch, G. W. Trucks, H. B. Schlegel, G. E. Scuseria, 
 M. A. Robb, J. R. Cheeseman, G. Scalmani, V. Barone, 
 G. A. Petersson, H. Nakatsuji, X. Li, M. Caricato, A. V. Marenich, 
 J. Bloino, B. G. Janesko, R. Gomperts, B. Mennucci, H. P. Hratchian, 
 J. V. Ortiz, A. F. Izmaylov, J. L. Sonnenberg, D. Williams-Young, 
 F. Ding, F. Lipparini, F. Egidi, J. Goings, B. Peng, A. Petrone, 
 T. Henderson, D. Ranasinghe, V. G. Zakrzewski, J. Gao, N. Rega, 
 G. Zheng, W. Liang, M. Hada, M. Ehara, K. Toyota, R. Fukuda, 
 J. Hasegawa, M. Ishida, T. Nakajima, Y. Honda, O. Kitao, H. Nakai, 
 T. Vreven, K. Throssell, J. A. Montgomery, Jr., J. E. Peralta, 
 F. Ogliaro, M. J. Bearpark, J. J. Heyd, E. N. Brothers, K. N. Kudin, 
 V. N. Staroverov, T. A. Keith, R. Kobayashi, J. Normand, 
 K. Raghavachari, A. P. Rendell, J. C. Burant, S. S. Iyengar, 
 J. Tomasi, M. Cossi, J. M. Millam, M. Klene, C. Adamo, R. Cammi, 
 J. W. Ochterski, R. L. Martin, K. Morokuma, O. Farkas, 
 J. B. Foresman, and D. J. Fox, Gaussian, Inc., Wallingford CT, 2016.
 
 ******************************************
 Gaussian 16:  EM64L-G16RevA.03 25-Dec-2016
                 4-Dec-2021 
 ******************************************
 ------------------------------------------------
 #P rhf nosymm output=matrix int=noraf scf=conven
 ------------------------------------------------
 1/38=1,172=1/1;
 2/12=2,15=1,17=6,18=5,40=1/2;
 3/25=20,28=1,30=1,116=1/1,2,3,8,20;
 4//1;
 5/5=1,29=1/2;
 6/7=2,8=2,9=2,10=2,28=1/1;
 99/5=1,6=100000,9=1/99;
 Leave Link    1 at Sat Dec  4 02:26:31 2021, MaxMem=           0 cpu:               0.1 elap:               0.2
 (Enter /usr/local/g16reva03/legacy_cpu/g16/l101.exe)
 ------------
 BH3_Molecule
 ------------
 Symbolic Z-matrix:
 Charge =  0 Multiplicity = 1
 B
 H                    1    B1
 H                    1    B2       2    A1
 H                    1    B3       3    A2       2    D1       0
       Variables:
  B1                    1.18                     
  B2                    1.18                     
  B3                    1.18                     
  A1                  120.                       
  A2                  120.                       
  D1                  180.                       
 
 ITRead=  0  0  0  0
 MicOpt= -1 -1 -1 -1
 NAtoms=      4 NQM=        4 NQMF=       0 NMMI=      0 NMMIF=      0
                NMic=       0 NMicF=      0.
                    Isotopes and Nuclear Properties:
 (Nuclear quadrupole moments (NQMom) in fm**2, nuclear magnetic moments (NMagM)
  in nuclear magnetons)

  Atom         1           2           3           4
 IAtWgt=          11           1           1           1
 AtmWgt=  11.0093053   1.0078250   1.0078250   1.0078250
 NucSpn=           3           1           1           1
 AtZEff=  -0.0000000  -0.0000000  -0.0000000  -0.0000000
 NQMom=    4.0590000   0.0000000   0.0000000   0.0000000
 NMagM=    2.6886370   2.7928460   2.7928460   2.7928460
 AtZNuc=   5.0000000   1.0000000   1.0000000   1.0000000
 Leave Link  101 at Sat Dec  4 02:26:31 2021, MaxMem=   104857600 cpu:               0.2 elap:               0.2
 (Enter /usr/local/g16reva03/legacy_cpu/g16/l202.exe)
                          Input orientation:                          
 ---------------------------------------------------------------------
 Center     Atomic      Atomic             Coordinates (Angstroms)
 Number     Number       Type             X           Y           Z
 ---------------------------------------------------------------------
      1          5           0        0.000000    0.000000    0.000000
      2          1           0        0.000000    0.000000    1.180000
      3          1           0        1.021910    0.000000   -0.590000
      4          1           0       -1.021910    0.000000   -0.590000
 ---------------------------------------------------------------------
                    Distance matrix (angstroms):
                    1          2          3          4
     1  B    0.000000
     2  H    1.180000   0.000000
     3  H    1.180000   2.043820   0.000000
     4  H    1.180000   2.043820   2.043820   0.000000
 Symmetry turned off by external request.
 Stoichiometry    BH3
 Framework group  D3H[O(B),3C2(H)]
 Deg. of freedom     1
 Full point group                 D3H     NOp  12
 Rotational constants (GHZ):         240.0914994         240.0914983         120.0457494
 Leave Link  202 at Sat Dec  4 02:26:31 2021, MaxMem=   104857600 cpu:               0.0 elap:               0.1
 (Enter /usr/local/g16reva03/legacy_cpu/g16/l301.exe)
 Standard basis: STO-3G (5D, 7F)
 Ernie: Thresh=  0.10000D-02 Tol=  0.10000D-05 Strict=F.
     8 basis functions,    24 primitive gaussians,     8 cartesian basis functions
     4 alpha electrons        4 beta electrons
       nuclear repulsion energy         7.5035762537 Hartrees.
 IExCor=    0 DFT=F Ex=HF Corr=None ExCW=0 ScaHFX=  1.000000
 ScaDFX=  1.000000  1.000000  1.000000  1.000000 ScalE2=  1.000000  1.000000
 IRadAn=      5 IRanWt=     -1 IRanGd=            0 ICorTp=0 IEmpDi=  4
 NAtoms=    4 NActive=    4 NUniq=    4 SFac= 1.00D+00 NAtFMM=   60 NAOKFM=F Big=F
 Integral buffers will be    131072 words long.
 Regular integral format.
 Two-electron integral symmetry is turned off.
 Leave Link  301 at Sat Dec  4 02:26:31 2021, MaxMem=   104857600 cpu:               0.1 elap:               0.1
 (Enter /usr/local/g16reva03/legacy_cpu/g16/l302.exe)
 NPDir=0 NMtPBC=     1 NCelOv=     1 NCel=       1 NClECP=     1 NCelD=      1
         NCelK=      1 NCelE2=     1 NClLst=     1 CellRange=     0.0.
 One-electron integrals computed using PRISM.
 NBasis=     8 RedAO= T EigKep=  2.48D-01  NBF=     8
 NBsUse=     8 1.00D-06 EigRej= -1.00D+00 NBFU=     8
 Leave Link  302 at Sat Dec  4 02:26:32 2021, MaxMem=   104857600 cpu:               0.1 elap:               0.2
 (Enter /usr/local/g16reva03/legacy_cpu/g16/l303.exe)
 DipDrv:  MaxL=1.
 Leave Link  303 at Sat Dec  4 02:26:32 2021, MaxMem=   104857600 cpu:               0.1 elap:               0.1
 (Enter /usr/local/g16reva03/legacy_cpu/g16/l308.exe)
 Leave Link  308 at Sat Dec  4 02:26:32 2021, MaxMem=   104857600 cpu:               0.1 elap:               0.1
 (Enter /usr/local/g16reva03/legacy_cpu/g16/l320.exe)
 Enter DskPsm, NBasis=   8 NBas6D=   8 NShell=   5 IDoSP=4.
 Out2e will use a cutoff of  1.00D-10
 FoFCou: FMM=F IPFlag=           0 FMFlag=           0 FMFlg1=           0
         NFxFlg=           0 DoJE=F BraDBF=F KetDBF=F FulRan=T
         wScrn=  0.000000 ICntrl=       600 IOpCl=  9 I1Cent=           0 NGrid=           0
         NMat0=    0 NMatS0=      0 NMatT0=    0 NMatD0=    0 NMtDS0=    0 NMtDT0=    0
 Symmetry not used in FoFCou.
          391 integrals produced for a total of          391.
 Leave Link  320 at Sat Dec  4 02:26:32 2021, MaxMem=   104857600 cpu:               0.2 elap:               0.3
 (Enter /usr/local/g16reva03/legacy_cpu/g16/l401.exe)
 ExpMin= 1.69D-01 ExpMax= 4.88D+01 ExpMxC= 4.88D+01 IAcc=3 IRadAn=         5 AccDes= 0.00D+00
 Harris functional with IExCor=  205 and IRadAn=       5 diagonalized for initial guess.
 HarFok:  IExCor=  205 AccDes= 0.00D+00 IRadAn=         5 IDoV= 1 UseB2=F ITyADJ=14
 ICtDFT=  3500011 ScaDFX=  1.000000  1.000000  1.000000  1.000000
 FoFCou: FMM=F IPFlag=           0 FMFlag=      100000 FMFlg1=           0
         NFxFlg=           0 DoJE=T BraDBF=F KetDBF=T FulRan=T
         wScrn=  0.000000 ICntrl=       500 IOpCl=  0 I1Cent=   200000004 NGrid=           0
         NMat0=    1 NMatS0=      1 NMatT0=    0 NMatD0=    1 NMtDS0=    0 NMtDT0=    0
 Symmetry not used in FoFCou.
 Harris En= -26.1468838660677    
 JPrj=0 DoOrth=F DoCkMO=F.
 Leave Link  401 at Sat Dec  4 02:26:33 2021, MaxMem=   104857600 cpu:               0.4 elap:               0.4
 (Enter /usr/local/g16reva03/legacy_cpu/g16/l502.exe)
 Two-electron integral symmetry not used.
 Closed shell SCF:
 Using DIIS extrapolation, IDIIS=  1040.
 Unsorted integral processing.
 NGot=   104857600 LenX=   104594068 LenY=   104593186
 Requested convergence on RMS density matrix=1.00D-08 within 128 cycles.
 Requested convergence on MAX density matrix=1.00D-06.
 Requested convergence on             energy=1.00D-06.
 No special actions if energy rises.

 Cycle   1  Pass 1  IDiag  1:
 E= -26.0601990427925    
 DIIS: error= 3.11D-02 at cycle   1 NSaved=   1.
 NSaved= 1 IEnMin= 1 EnMin= -26.0601990427925     IErMin= 1 ErrMin= 3.11D-02
 ErrMax= 3.11D-02  0.00D+00 EMaxC= 1.00D-01 BMatC= 1.13D-02 BMatP= 1.13D-02
 IDIUse=3 WtCom= 6.89D-01 WtEn= 3.11D-01
 Coeff-Com:  0.100D+01
 Coeff-En:   0.100D+01
 Coeff:      0.100D+01
 Gap=     0.720 Goal=   None    Shift=    0.000
 GapD=    0.720 DampG=2.000 DampE=0.500 DampFc=1.0000 IDamp=-1.
 RMSDP=1.41D-02 MaxDP=4.59D-02              OVMax= 0.00D+00

 Cycle   2  Pass 1  IDiag  1:
 E= -26.0699046985624     Delta-E=       -0.009705655770 Rises=F Damp=F
 DIIS: error= 4.11D-03 at cycle   2 NSaved=   2.
 NSaved= 2 IEnMin= 2 EnMin= -26.0699046985624     IErMin= 2 ErrMin= 4.11D-03
 ErrMax= 4.11D-03  0.00D+00 EMaxC= 1.00D-01 BMatC= 7.11D-05 BMatP= 1.13D-02
 IDIUse=3 WtCom= 9.59D-01 WtEn= 4.11D-02
 Coeff-Com: -0.581D-01 0.106D+01
 Coeff-En:   0.000D+00 0.100D+01
 Coeff:     -0.557D-01 0.106D+01
 Gap=     0.704 Goal=   None    Shift=    0.000
 RMSDP=6.77D-04 MaxDP=2.28D-03 DE=-9.71D-03 OVMax= 0.00D+00

 Cycle   3  Pass 1  IDiag  1:
 E= -26.0699322444083     Delta-E=       -0.000027545846 Rises=F Damp=F
 DIIS: error= 1.61D-04 at cycle   3 NSaved=   3.
 NSaved= 3 IEnMin= 3 EnMin= -26.0699322444083     IErMin= 3 ErrMin= 1.61D-04
 ErrMax= 1.61D-04  0.00D+00 EMaxC= 1.00D-01 BMatC= 2.73D-07 BMatP= 7.11D-05
 IDIUse=3 WtCom= 9.98D-01 WtEn= 1.61D-03
 Coeff-Com:  0.390D-03-0.296D-01 0.103D+01
 Coeff-En:   0.000D+00 0.000D+00 0.100D+01
 Coeff:      0.389D-03-0.296D-01 0.103D+01
 Gap=     0.704 Goal=   None    Shift=    0.000
 RMSDP=1.08D-04 MaxDP=4.87D-04 DE=-2.75D-05 OVMax= 0.00D+00

 Cycle   4  Pass 1  IDiag  1:
 E= -26.0699327570963     Delta-E=       -0.000000512688 Rises=F Damp=F
 DIIS: error= 4.48D-05 at cycle   4 NSaved=   4.
 NSaved= 4 IEnMin= 4 EnMin= -26.0699327570963     IErMin= 4 ErrMin= 4.48D-05
 ErrMax= 4.48D-05  0.00D+00 EMaxC= 1.00D-01 BMatC= 1.40D-08 BMatP= 2.73D-07
 IDIUse=1 WtCom= 1.00D+00 WtEn= 0.00D+00
 Coeff-Com:  0.277D-03 0.554D-03-0.309D+00 0.131D+01
 Coeff:      0.277D-03 0.554D-03-0.309D+00 0.131D+01
 Gap=     0.704 Goal=   None    Shift=    0.000
 RMSDP=3.21D-05 MaxDP=1.60D-04 DE=-5.13D-07 OVMax= 0.00D+00

 Cycle   5  Pass 1  IDiag  1:
 E= -26.0699327854901     Delta-E=       -0.000000028394 Rises=F Damp=F
 DIIS: error= 5.48D-09 at cycle   5 NSaved=   5.
 NSaved= 5 IEnMin= 5 EnMin= -26.0699327854901     IErMin= 5 ErrMin= 5.48D-09
 ErrMax= 5.48D-09  0.00D+00 EMaxC= 1.00D-01 BMatC= 3.87D-16 BMatP= 1.40D-08
 IDIUse=1 WtCom= 1.00D+00 WtEn= 0.00D+00
 Coeff-Com: -0.226D-07-0.310D-05 0.182D-03-0.609D-03 0.100D+01
 Coeff:     -0.226D-07-0.310D-05 0.182D-03-0.609D-03 0.100D+01
 Gap=     0.704 Goal=   None    Shift=    0.000
 RMSDP=4.11D-09 MaxDP=1.26D-08 DE=-2.84D-08 OVMax= 0.00D+00

 SCF Done:  E(RHF) =  -26.0699327855     A.U. after    5 cycles
            NFock=  5  Conv=0.41D-08     -V/T= 1.9916
 KE= 2.629062365990D+01 PE=-7.540682066880D+01 EE= 1.554268796975D+01
 Leave Link  502 at Sat Dec  4 02:26:33 2021, MaxMem=   104857600 cpu:               0.1 elap:               0.1
 (Enter /usr/local/g16reva03/legacy_cpu/g16/l601.exe)
 Copying SCF densities to generalized density rwf, IOpCl= 0 IROHF=0.

 **********************************************************************

            Population analysis using the SCF density.

 **********************************************************************

 Alpha  occ. eigenvalues --   -7.41554  -0.66913  -0.46537  -0.46537
 Alpha virt. eigenvalues --    0.23898   0.70118   0.76002   0.76002
          Condensed to atoms (all electrons):
               1          2          3          4
     1  B    3.621402   0.397200   0.397200   0.397200
     2  H    0.397200   0.689552  -0.012210  -0.012210
     3  H    0.397200  -0.012210   0.689552  -0.012210
     4  H    0.397200  -0.012210  -0.012210   0.689552
 Mulliken charges:
               1
     1  B    0.186998
     2  H   -0.062333
     3  H   -0.062333
     4  H   -0.062333
 Sum of Mulliken charges =   0.00000
 Mulliken charges with hydrogens summed into heavy atoms:
               1
     1  B    0.000000
 Electronic spatial extent (au):  <R**2>=             32.2068
 Charge=              0.0000 electrons
 Dipole moment (field-independent basis, Debye):
    X=             -0.0000    Y=              0.0000    Z=              0.0000  Tot=              0.0000
 Quadrupole moment (field-independent basis, Debye-Ang):
   XX=             -8.4523   YY=             -6.3507   ZZ=             -8.4523
   XY=              0.0000   XZ=              0.0000   YZ=              0.0000
 Traceless Quadrupole moment (field-independent basis, Debye-Ang):
   XX=             -0.7005   YY=              1.4011   ZZ=             -0.7005
   XY=              0.0000   XZ=              0.0000   YZ=              0.0000
 Octapole moment (field-independent basis, Debye-Ang**2):
  XXX=             -0.0000  YYY=              0.0000  ZZZ=             -0.0051  XYY=              0.0000
  XXY=              0.0000  XXZ=              0.0051  XZZ=             -0.0000  YZZ=              0.0000
  YYZ=              0.0000  XYZ=             -0.0000
 Hexadecapole moment (field-independent basis, Debye-Ang**3):
 XXXX=            -19.2643 YYYY=             -5.3952 ZZZZ=            -19.2643 XXXY=              0.0000
 XXXZ=              0.0000 YYYX=              0.0000 YYYZ=              0.0000 ZZZX=              0.0000
 ZZZY=              0.0000 XXYY=             -4.2534 XXZZ=             -6.4214 YYZZ=             -4.2534
 XXYZ=              0.0000 YYXZ=             -0.0000 ZZXY=              0.0000
 N-N= 7.503576253662D+00 E-N=-7.540682070495D+01  KE= 2.629062365990D+01
 No NMR shielding tensors so no spin-rotation constants.
 Leave Link  601 at Sat Dec  4 02:26:33 2021, MaxMem=   104857600 cpu:               0.2 elap:               0.1
 (Enter /usr/local/g16reva03/legacy_cpu/g16/l9999.exe)
 1\1\GINC-USER1\SP\RHF\STO-3G\B1H3\AMKINY01\04-Dec-2021\0\\#P rhf nosym
 m output=matrix int=noraf scf=conven\\BH3_Molecule\\0,1\B\H,1,1.18\H,1
 ,1.18,2,120.00000011\H,1,1.18,3,119.99999978,2,180.,0\\Version=EM64L-G
 16RevA.03\HF=-26.0699328\RMSD=4.110e-09\Dipole=0.,0.,0.\Quadrupole=-0.
 5208361,1.0416721,-0.5208361,0.,0.,0.\PG=D03H [O(B1),3C2(H1)]\\@


 MATERIAL COPIED FROM ONE SCHOLARLY BOOK WITHOUT CREDIT COMPRISES PLAGIARISM.
 MATERIAL COPIED FROM TWO SCHOLARLY BOOKS COMPRISES AN ESSAY.
 MATERIAL COPIED FROM THREE SCHOLARLY BOOKS COMPRISES A DISSERTATION.
 MATERIAL COPIED FROM FOUR SCHOLARLY BOOKS COMPRISES A FIFTH SCHOLARLY BOOK.

                               -- C&EN, 25 FEB 1980

 Writing WrtUnf unformatted file "bh3_Ang.mat"
 Gaussian matrix elements                                         Version   2 NLab=11 Len12L=8 Len4L=8
 Write SHELL TO ATOM MAP                   from file     0 offset           0 length                   5 to matrix element file.
 Write SHELL TYPES                         from file     0 offset           0 length                   5 to matrix element file.
 Write NUMBER OF PRIMITIVES PER SHELL      from file     0 offset           0 length                   5 to matrix element file.
 Write PRIMITIVE EXPONENTS                 from file     0 offset           0 length                  15 to matrix element file.
 Write CONTRACTION COEFFICIENTS            from file     0 offset           0 length                  15 to matrix element file.
 Write P(S=P) CONTRACTION COEFFICIENTS     from file     0 offset           0 length                  15 to matrix element file.
 Write COORDINATES OF EACH SHELL           from file     0 offset           0 length                  15 to matrix element file.
 Write BONDS PER ATOM                      from file     0 offset           0 length                   4 to matrix element file.
 Write BONDED ATOMS                        from file     0 offset           0 length                   6 to matrix element file.
 Write BOND TYPES                          from file     0 offset           0 length                   6 to matrix element file.
 Write GAUSSIAN SCALARS                    from file   501 offset           0 to matrix element file.
 Write INTEGER ISO                         from file     0 offset           0 length                   4 to matrix element file.
 Write INTEGER SPIN                        from file     0 offset           0 length                   4 to matrix element file.
 Write REAL ZEFFECTIVE                     from file     0 offset           0 length                   4 to matrix element file.
 Write REAL QUADRUPOLEMOMENT               from file     0 offset           0 length                   4 to matrix element file.
 Write REAL GFACTOR                        from file     0 offset           0 length                   4 to matrix element file.
 Write REAL ZNUCLEAR                       from file     0 offset           0 length                   4 to matrix element file.
 Write NUCLEAR GRADIENT                    from file 10584 offset           0 length                  12 to matrix element file.
 Array NUCLEAR FORCE CONSTANTS              on  file 10585 does not exist.
 Write ELECTRIC DIPOLE MOMENT              from file     0 offset           0 length                   3 to matrix element file.
 Write OVERLAP                             from file   514 offset           0 length                  36 to matrix element file.
 Write CORE HAMILTONIAN ALPHA              from file   515 offset           0 length                  36 to matrix element file.
 Write CORE HAMILTONIAN BETA               from file   515 offset          36 length                  36 to matrix element file.
 Write KINETIC ENERGY                      from file   516 offset           0 length                  36 to matrix element file.
 Write ORTHOGONAL BASIS                    from file   685 offset           0 length                  64 to matrix element file.
 Write DIPOLE INTEGRALS                    from file   518 offset           0 length                 108 to matrix element file.
 Write DIP VEL INTEGRALS                   from file   572 offset           0 length                 108 to matrix element file.
 Write R X DEL INTEGRALS                   from file   572 offset         108 length                 108 to matrix element file.
 Write ALPHA ORBITAL ENERGIES              from file     0 offset           0 length                   8 to matrix element file.
 Write ALPHA MO COEFFICIENTS               from file 10524 offset           0 length                  64 to matrix element file.
 Write ALPHA DENSITY MATRIX                from file 10528 offset           0 length                  36 to matrix element file.
 Write ALPHA SCF DENSITY MATRIX            from file 10528 offset           0 length                  36 to matrix element file.
 Write ALPHA FOCK MATRIX                   from file 10536 offset           0 length                  36 to matrix element file.
 Write REGULAR 2E INTEGRALS                to matrix element file, NR=1 ITotal=         391.
 Job cpu time:       0 days  0 hours  0 minutes  1.9 seconds.
 Elapsed time:       0 days  0 hours  0 minutes  2.0 seconds.
 File lengths (MBytes):  RWF=     72 Int=      4 D2E=      0 Chk=      8 Scr=      8
 Normal termination of Gaussian 16 at Sat Dec  4 02:26:33 2021.
