 Entering Gaussian System, Link 0=g16
 Input=h12.com
 Output=h12.log
 Initial command:
 /usr/local/g16reva03/legacy_cpu/g16/l1.exe "/scratch/global/g16/Gau-17773.inp" -scrdir="/scratch/global/g16/"
 Entering Link 1 = /usr/local/g16reva03/legacy_cpu/g16/l1.exe PID=     17774.
  
 Copyright (c) 1988,1990,1992,1993,1995,1998,2003,2009,2016,
            Gaussian, Inc.  All Rights Reserved.
  
 This is part of the Gaussian(R) 16 program.  It is based on
 the Gaussian(R) 09 system (copyright 2009, Gaussian, Inc.),
 the Gaussian(R) 03 system (copyright 2003, Gaussian, Inc.),
 the Gaussian(R) 98 system (copyright 1998, Gaussian, Inc.),
 the Gaussian(R) 94 system (copyright 1995, Gaussian, Inc.),
 the Gaussian 92(TM) system (copyright 1992, Gaussian, Inc.),
 the Gaussian 90(TM) system (copyright 1990, Gaussian, Inc.),
 the Gaussian 88(TM) system (copyright 1988, Gaussian, Inc.),
 the Gaussian 86(TM) system (copyright 1986, Carnegie Mellon
 University), and the Gaussian 82(TM) system (copyright 1983,
 Carnegie Mellon University). Gaussian is a federally registered
 trademark of Gaussian, Inc.
  
 This software contains proprietary and confidential information,
 including trade secrets, belonging to Gaussian, Inc.
  
 This software is provided under written license and may be
 used, copied, transmitted, or stored only in accord with that
 written license.
  
 The following legend is applicable only to US Government
 contracts under FAR:
  
                    RESTRICTED RIGHTS LEGEND
  
 Use, reproduction and disclosure by the US Government is
 subject to restrictions as set forth in subparagraphs (a)
 and (c) of the Commercial Computer Software - Restricted
 Rights clause in FAR 52.227-19.
  
 Gaussian, Inc.
 340 Quinnipiac St., Bldg. 40, Wallingford CT 06492
  
  
 ---------------------------------------------------------------
 Warning -- This program may not be used in any manner that
 competes with the business of Gaussian, Inc. or will provide
 assistance to any competitor of Gaussian, Inc.  The licensee
 of this program is prohibited from giving any competitor of
 Gaussian, Inc. access to this program.  By using this program,
 the user acknowledges that Gaussian, Inc. is engaged in the
 business of creating and licensing software in the field of
 computational chemistry and represents and warrants to the
 licensee that it is not a competitor of Gaussian, Inc. and that
 it will not use this program in any manner prohibited above.
 ---------------------------------------------------------------
  

 Cite this work as:
 Gaussian 16, Revision A.03,
 M. J. Frisch, G. W. Trucks, H. B. Schlegel, G. E. Scuseria, 
 M. A. Robb, J. R. Cheeseman, G. Scalmani, V. Barone, 
 G. A. Petersson, H. Nakatsuji, X. Li, M. Caricato, A. V. Marenich, 
 J. Bloino, B. G. Janesko, R. Gomperts, B. Mennucci, H. P. Hratchian, 
 J. V. Ortiz, A. F. Izmaylov, J. L. Sonnenberg, D. Williams-Young, 
 F. Ding, F. Lipparini, F. Egidi, J. Goings, B. Peng, A. Petrone, 
 T. Henderson, D. Ranasinghe, V. G. Zakrzewski, J. Gao, N. Rega, 
 G. Zheng, W. Liang, M. Hada, M. Ehara, K. Toyota, R. Fukuda, 
 J. Hasegawa, M. Ishida, T. Nakajima, Y. Honda, O. Kitao, H. Nakai, 
 T. Vreven, K. Throssell, J. A. Montgomery, Jr., J. E. Peralta, 
 F. Ogliaro, M. J. Bearpark, J. J. Heyd, E. N. Brothers, K. N. Kudin, 
 V. N. Staroverov, T. A. Keith, R. Kobayashi, J. Normand, 
 K. Raghavachari, A. P. Rendell, J. C. Burant, S. S. Iyengar, 
 J. Tomasi, M. Cossi, J. M. Millam, M. Klene, C. Adamo, R. Cammi, 
 J. W. Ochterski, R. L. Martin, K. Morokuma, O. Farkas, 
 J. B. Foresman, and D. J. Fox, Gaussian, Inc., Wallingford CT, 2016.
 
 ******************************************
 Gaussian 16:  EM64L-G16RevA.03 25-Dec-2016
                 6-Dec-2021 
 ******************************************
 ------------------------------------------------
 #P rhf nosymm output=matrix int=noraf scf=conven
 ------------------------------------------------
 1/38=1,172=1/1;
 2/12=2,15=1,17=6,18=5,40=1/2;
 3/25=20,28=1,30=1,116=1/1,2,3,8,20;
 4//1;
 5/5=1,29=1/2;
 6/7=2,8=2,9=2,10=2,28=1/1;
 99/5=1,6=100000,9=1/99;
 Leave Link    1 at Mon Dec  6 11:53:14 2021, MaxMem=           0 cpu:               0.1 elap:               0.2
 (Enter /usr/local/g16reva03/legacy_cpu/g16/l101.exe)
 -----------------
 Hydrogen_Molecule
 -----------------
 Symbolic Z-matrix:
 Charge =  0 Multiplicity = 1
 H
 H                    1     1. 
 H                    2     1.       1     180. 
 H                    3     1.       2     180.     1     0.       0
 H                    4     1.       3     180.     1     0.       0
 H                    5     1.       4     180.     1     0.       0
 H                    6     1.       5     180.     1     0.       0
 H                    7     1.       6     180.     1     0.       0
 H                    8     1.       7     180.     1     0.       0
 H                    9     1.       8     180.     1     0.       0
 H                    10    1.       9     180.     1     0.       0
 H                    11    1.       10    180.     1     0.       0
 
 ITRead=  0  0  0  0  0  0  0  0  0  0  0  0
 MicOpt= -1 -1 -1 -1 -1 -1 -1 -1 -1 -1 -1 -1
 NAtoms=     12 NQM=       12 NQMF=       0 NMMI=      0 NMMIF=      0
                NMic=       0 NMicF=      0.
                    Isotopes and Nuclear Properties:
 (Nuclear quadrupole moments (NQMom) in fm**2, nuclear magnetic moments (NMagM)
  in nuclear magnetons)

  Atom         1           2           3           4           5           6           7           8           9          10
 IAtWgt=           1           1           1           1           1           1           1           1           1           1
 AtmWgt=   1.0078250   1.0078250   1.0078250   1.0078250   1.0078250   1.0078250   1.0078250   1.0078250   1.0078250   1.0078250
 NucSpn=           1           1           1           1           1           1           1           1           1           1
 AtZEff=  -0.0000000  -0.0000000  -0.0000000  -0.0000000  -0.0000000  -0.0000000  -0.0000000  -0.0000000  -0.0000000  -0.0000000
 NQMom=    0.0000000   0.0000000   0.0000000   0.0000000   0.0000000   0.0000000   0.0000000   0.0000000   0.0000000   0.0000000
 NMagM=    2.7928460   2.7928460   2.7928460   2.7928460   2.7928460   2.7928460   2.7928460   2.7928460   2.7928460   2.7928460
 AtZNuc=   1.0000000   1.0000000   1.0000000   1.0000000   1.0000000   1.0000000   1.0000000   1.0000000   1.0000000   1.0000000

  Atom        11          12
 IAtWgt=           1           1
 AtmWgt=   1.0078250   1.0078250
 NucSpn=           1           1
 AtZEff=  -0.0000000  -0.0000000
 NQMom=    0.0000000   0.0000000
 NMagM=    2.7928460   2.7928460
 AtZNuc=   1.0000000   1.0000000
 Leave Link  101 at Mon Dec  6 11:53:14 2021, MaxMem=   104857600 cpu:               0.2 elap:               0.3
 (Enter /usr/local/g16reva03/legacy_cpu/g16/l202.exe)
                          Input orientation:                          
 ---------------------------------------------------------------------
 Center     Atomic      Atomic             Coordinates (Angstroms)
 Number     Number       Type             X           Y           Z
 ---------------------------------------------------------------------
      1          1           0        0.000000    0.000000    0.000000
      2          1           0        0.000000    0.000000    1.000000
      3          1           0        0.000000    0.000000    2.000000
      4          1           0        0.000000    0.000000    3.000000
      5          1           0        0.000000    0.000000    4.000000
      6          1           0        0.000000    0.000000    5.000000
      7          1           0        0.000000    0.000000    6.000000
      8          1           0        0.000000    0.000000    7.000000
      9          1           0        0.000000    0.000000    8.000000
     10          1           0        0.000000    0.000000    9.000000
     11          1           0        0.000000    0.000000   10.000000
     12          1           0        0.000000    0.000000   11.000000
 ---------------------------------------------------------------------
                    Distance matrix (angstroms):
                    1          2          3          4          5
     1  H    0.000000
     2  H    1.000000   0.000000
     3  H    2.000000   1.000000   0.000000
     4  H    3.000000   2.000000   1.000000   0.000000
     5  H    4.000000   3.000000   2.000000   1.000000   0.000000
     6  H    5.000000   4.000000   3.000000   2.000000   1.000000
     7  H    6.000000   5.000000   4.000000   3.000000   2.000000
     8  H    7.000000   6.000000   5.000000   4.000000   3.000000
     9  H    8.000000   7.000000   6.000000   5.000000   4.000000
    10  H    9.000000   8.000000   7.000000   6.000000   5.000000
    11  H   10.000000   9.000000   8.000000   7.000000   6.000000
    12  H   11.000000  10.000000   9.000000   8.000000   7.000000
                    6          7          8          9         10
     6  H    0.000000
     7  H    1.000000   0.000000
     8  H    2.000000   1.000000   0.000000
     9  H    3.000000   2.000000   1.000000   0.000000
    10  H    4.000000   3.000000   2.000000   1.000000   0.000000
    11  H    5.000000   4.000000   3.000000   2.000000   1.000000
    12  H    6.000000   5.000000   4.000000   3.000000   2.000000
                   11         12
    11  H    0.000000
    12  H    1.000000   0.000000
 Symmetry turned off by external request.
 Stoichiometry    H12
 Framework group  D*H[C*(HHHHHH.HHHHHH)]
 Deg. of freedom     6
 Full point group                 D*H     NOp   8
 Rotational constants (GHZ):           0.0000000           3.5066791           3.5066791
 Leave Link  202 at Mon Dec  6 11:53:14 2021, MaxMem=   104857600 cpu:               0.1 elap:               0.1
 (Enter /usr/local/g16reva03/legacy_cpu/g16/l301.exe)
 Standard basis: STO-3G (5D, 7F)
 Ernie: Thresh=  0.10000D-02 Tol=  0.10000D-05 Strict=F.
    12 basis functions,    36 primitive gaussians,    12 cartesian basis functions
     6 alpha electrons        6 beta electrons
       nuclear repulsion energy        13.3556539281 Hartrees.
 IExCor=    0 DFT=F Ex=HF Corr=None ExCW=0 ScaHFX=  1.000000
 ScaDFX=  1.000000  1.000000  1.000000  1.000000 ScalE2=  1.000000  1.000000
 IRadAn=      5 IRanWt=     -1 IRanGd=            0 ICorTp=0 IEmpDi=  4
 NAtoms=   12 NActive=   12 NUniq=   12 SFac= 1.00D+00 NAtFMM=   60 NAOKFM=F Big=F
 Integral buffers will be    131072 words long.
 Regular integral format.
 Two-electron integral symmetry is turned off.
 Leave Link  301 at Mon Dec  6 11:53:14 2021, MaxMem=   104857600 cpu:               0.1 elap:               0.1
 (Enter /usr/local/g16reva03/legacy_cpu/g16/l302.exe)
 NPDir=0 NMtPBC=     1 NCelOv=     1 NCel=       1 NClECP=     1 NCelD=      1
         NCelK=      1 NCelE2=     1 NClLst=     1 CellRange=     0.0.
 One-electron integrals computed using PRISM.
 NBasis=    12 RedAO= T EigKep=  2.22D-01  NBF=    12
 NBsUse=    12 1.00D-06 EigRej= -1.00D+00 NBFU=    12
 Leave Link  302 at Mon Dec  6 11:53:15 2021, MaxMem=   104857600 cpu:               0.1 elap:               0.2
 (Enter /usr/local/g16reva03/legacy_cpu/g16/l303.exe)
 DipDrv:  MaxL=1.
 Leave Link  303 at Mon Dec  6 11:53:15 2021, MaxMem=   104857600 cpu:               0.1 elap:               0.1
 (Enter /usr/local/g16reva03/legacy_cpu/g16/l308.exe)
 Leave Link  308 at Mon Dec  6 11:53:15 2021, MaxMem=   104857600 cpu:               0.1 elap:               0.1
 (Enter /usr/local/g16reva03/legacy_cpu/g16/l320.exe)
 Enter DskPsm, NBasis=  12 NBas6D=  12 NShell=  12 IDoSP=4.
 Out2e will use a cutoff of  1.00D-10
 FoFCou: FMM=F IPFlag=           0 FMFlag=           0 FMFlg1=           0
         NFxFlg=           0 DoJE=F BraDBF=F KetDBF=F FulRan=T
         wScrn=  0.000000 ICntrl=       600 IOpCl=  9 I1Cent=           0 NGrid=           0
         NMat0=    0 NMatS0=      0 NMatT0=    0 NMatD0=    0 NMtDS0=    0 NMtDT0=    0
 Symmetry not used in FoFCou.
         2237 integrals produced for a total of         2237.
 Leave Link  320 at Mon Dec  6 11:53:15 2021, MaxMem=   104857600 cpu:               0.1 elap:               0.1
 (Enter /usr/local/g16reva03/legacy_cpu/g16/l401.exe)
 ExpMin= 1.69D-01 ExpMax= 3.43D+00 ExpMxC= 3.43D+00 IAcc=3 IRadAn=         5 AccDes= 0.00D+00
 Harris functional with IExCor=  205 and IRadAn=       5 diagonalized for initial guess.
 HarFok:  IExCor=  205 AccDes= 0.00D+00 IRadAn=         5 IDoV= 1 UseB2=F ITyADJ=14
 ICtDFT=  3500011 ScaDFX=  1.000000  1.000000  1.000000  1.000000
 FoFCou: FMM=F IPFlag=           0 FMFlag=      100000 FMFlg1=           0
         NFxFlg=           0 DoJE=T BraDBF=F KetDBF=T FulRan=T
         wScrn=  0.000000 ICntrl=       500 IOpCl=  0 I1Cent=   200000004 NGrid=           0
         NMat0=    1 NMatS0=      1 NMatT0=    0 NMatD0=    1 NMtDS0=    0 NMtDT0=    0
 Symmetry not used in FoFCou.
 Harris En= -6.78901425242216    
 JPrj=0 DoOrth=F DoCkMO=F.
 Leave Link  401 at Mon Dec  6 11:53:16 2021, MaxMem=   104857600 cpu:               1.2 elap:               1.3
 (Enter /usr/local/g16reva03/legacy_cpu/g16/l502.exe)
 Two-electron integral symmetry not used.
 Closed shell SCF:
 Using DIIS extrapolation, IDIIS=  1040.
 Unsorted integral processing.
 NGot=   104857600 LenX=   104593880 LenY=   104592998
 Requested convergence on RMS density matrix=1.00D-08 within 128 cycles.
 Requested convergence on MAX density matrix=1.00D-06.
 Requested convergence on             energy=1.00D-06.
 No special actions if energy rises.

 Cycle   1  Pass 1  IDiag  1:
 E= -6.23677956564686    
 DIIS: error= 1.76D-02 at cycle   1 NSaved=   1.
 NSaved= 1 IEnMin= 1 EnMin= -6.23677956564686     IErMin= 1 ErrMin= 1.76D-02
 ErrMax= 1.76D-02  0.00D+00 EMaxC= 1.00D-01 BMatC= 3.32D-03 BMatP= 3.32D-03
 IDIUse=3 WtCom= 8.24D-01 WtEn= 1.76D-01
 Coeff-Com:  0.100D+01
 Coeff-En:   0.100D+01
 Coeff:      0.100D+01
 Gap=     0.335 Goal=   None    Shift=    0.000
 GapD=    0.335 DampG=1.000 DampE=0.500 DampFc=0.5000 IDamp=-1.
 Damping current iteration by 5.00D-01
 RMSDP=1.24D-02 MaxDP=2.78D-02              OVMax= 0.00D+00

 Cycle   2  Pass 1  IDiag  1:
 E= -6.24279853645328     Delta-E=       -0.006018970806 Rises=F Damp=T
 DIIS: error= 1.12D-02 at cycle   2 NSaved=   2.
 NSaved= 2 IEnMin= 2 EnMin= -6.24279853645328     IErMin= 2 ErrMin= 1.12D-02
 ErrMax= 1.12D-02  0.00D+00 EMaxC= 1.00D-01 BMatC= 1.66D-03 BMatP= 3.32D-03
 IDIUse=3 WtCom= 8.88D-01 WtEn= 1.12D-01
 Coeff-Com: -0.190D+01 0.290D+01
 Coeff-En:   0.000D+00 0.100D+01
 Coeff:     -0.169D+01 0.269D+01
 Gap=     0.366 Goal=   None    Shift=    0.000
 RMSDP=1.37D-02 MaxDP=3.24D-02 DE=-6.02D-03 OVMax= 0.00D+00

 Cycle   3  Pass 1  IDiag  1:
 E= -6.25394075411013     Delta-E=       -0.011142217657 Rises=F Damp=F
 DIIS: error= 1.92D-03 at cycle   3 NSaved=   3.
 NSaved= 3 IEnMin= 3 EnMin= -6.25394075411013     IErMin= 3 ErrMin= 1.92D-03
 ErrMax= 1.92D-03  0.00D+00 EMaxC= 1.00D-01 BMatC= 5.80D-05 BMatP= 1.66D-03
 IDIUse=3 WtCom= 9.81D-01 WtEn= 1.92D-02
 Coeff-Com:  0.186D+00-0.470D+00 0.128D+01
 Coeff-En:   0.000D+00 0.000D+00 0.100D+01
 Coeff:      0.183D+00-0.461D+00 0.128D+01
 Gap=     0.377 Goal=   None    Shift=    0.000
 RMSDP=2.80D-03 MaxDP=7.90D-03 DE=-1.11D-02 OVMax= 0.00D+00

 Cycle   4  Pass 1  IDiag  1:
 E= -6.25421548027297     Delta-E=       -0.000274726163 Rises=F Damp=F
 DIIS: error= 2.33D-04 at cycle   4 NSaved=   4.
 NSaved= 4 IEnMin= 4 EnMin= -6.25421548027297     IErMin= 4 ErrMin= 2.33D-04
 ErrMax= 2.33D-04  0.00D+00 EMaxC= 1.00D-01 BMatC= 7.17D-07 BMatP= 5.80D-05
 IDIUse=3 WtCom= 9.98D-01 WtEn= 2.33D-03
 Coeff-Com: -0.518D-03 0.253D-01-0.165D+00 0.114D+01
 Coeff-En:   0.000D+00 0.000D+00 0.000D+00 0.100D+01
 Coeff:     -0.517D-03 0.253D-01-0.165D+00 0.114D+01
 Gap=     0.377 Goal=   None    Shift=    0.000
 RMSDP=1.86D-04 MaxDP=6.26D-04 DE=-2.75D-04 OVMax= 0.00D+00

 Cycle   5  Pass 1  IDiag  1:
 E= -6.25421739411016     Delta-E=       -0.000001913837 Rises=F Damp=F
 DIIS: error= 4.30D-05 at cycle   5 NSaved=   5.
 NSaved= 5 IEnMin= 5 EnMin= -6.25421739411016     IErMin= 5 ErrMin= 4.30D-05
 ErrMax= 4.30D-05  0.00D+00 EMaxC= 1.00D-01 BMatC= 2.84D-08 BMatP= 7.17D-07
 IDIUse=1 WtCom= 1.00D+00 WtEn= 0.00D+00
 Coeff-Com: -0.261D-02 0.975D-02-0.402D-01-0.385D-01 0.107D+01
 Coeff:     -0.261D-02 0.975D-02-0.402D-01-0.385D-01 0.107D+01
 Gap=     0.377 Goal=   None    Shift=    0.000
 RMSDP=3.85D-05 MaxDP=1.45D-04 DE=-1.91D-06 OVMax= 0.00D+00

 Cycle   6  Pass 1  IDiag  1:
 E= -6.25421748867184     Delta-E=       -0.000000094562 Rises=F Damp=F
 DIIS: error= 7.08D-06 at cycle   6 NSaved=   6.
 NSaved= 6 IEnMin= 6 EnMin= -6.25421748867184     IErMin= 6 ErrMin= 7.08D-06
 ErrMax= 7.08D-06  0.00D+00 EMaxC= 1.00D-01 BMatC= 6.68D-10 BMatP= 2.84D-08
 IDIUse=1 WtCom= 1.00D+00 WtEn= 0.00D+00
 Coeff-Com:  0.801D-03-0.266D-02 0.855D-02-0.290D-01-0.952D-01 0.112D+01
 Coeff:      0.801D-03-0.266D-02 0.855D-02-0.290D-01-0.952D-01 0.112D+01
 Gap=     0.377 Goal=   None    Shift=    0.000
 RMSDP=8.55D-06 MaxDP=3.09D-05 DE=-9.46D-08 OVMax= 0.00D+00

 Cycle   7  Pass 1  IDiag  1:
 E= -6.25421749109202     Delta-E=       -0.000000002420 Rises=F Damp=F
 DIIS: error= 5.30D-07 at cycle   7 NSaved=   7.
 NSaved= 7 IEnMin= 7 EnMin= -6.25421749109202     IErMin= 7 ErrMin= 5.30D-07
 ErrMax= 5.30D-07  0.00D+00 EMaxC= 1.00D-01 BMatC= 4.15D-12 BMatP= 6.68D-10
 IDIUse=1 WtCom= 1.00D+00 WtEn= 0.00D+00
 Coeff-Com: -0.357D-04 0.124D-04 0.428D-03 0.727D-03-0.136D-01-0.103D-01
 Coeff-Com:  0.102D+01
 Coeff:     -0.357D-04 0.124D-04 0.428D-03 0.727D-03-0.136D-01-0.103D-01
 Coeff:      0.102D+01
 Gap=     0.377 Goal=   None    Shift=    0.000
 RMSDP=4.29D-07 MaxDP=1.17D-06 DE=-2.42D-09 OVMax= 0.00D+00

 Cycle   8  Pass 1  IDiag  1:
 E= -6.25421749110410     Delta-E=       -0.000000000012 Rises=F Damp=F
 DIIS: error= 3.92D-08 at cycle   8 NSaved=   8.
 NSaved= 8 IEnMin= 8 EnMin= -6.25421749110410     IErMin= 8 ErrMin= 3.92D-08
 ErrMax= 3.92D-08  0.00D+00 EMaxC= 1.00D-01 BMatC= 4.61D-14 BMatP= 4.15D-12
 IDIUse=1 WtCom= 1.00D+00 WtEn= 0.00D+00
 Coeff-Com: -0.784D-05 0.353D-04-0.161D-03 0.213D-03 0.304D-02-0.107D-01
 Coeff-Com: -0.159D+00 0.117D+01
 Coeff:     -0.784D-05 0.353D-04-0.161D-03 0.213D-03 0.304D-02-0.107D-01
 Coeff:     -0.159D+00 0.117D+01
 Gap=     0.377 Goal=   None    Shift=    0.000
 RMSDP=5.25D-08 MaxDP=1.57D-07 DE=-1.21D-11 OVMax= 0.00D+00

 Cycle   9  Pass 1  IDiag  1:
 E= -6.25421749110421     Delta-E=       -0.000000000000 Rises=F Damp=F
 DIIS: error= 6.44D-09 at cycle   9 NSaved=   9.
 NSaved= 9 IEnMin= 9 EnMin= -6.25421749110421     IErMin= 9 ErrMin= 6.44D-09
 ErrMax= 6.44D-09  0.00D+00 EMaxC= 1.00D-01 BMatC= 5.95D-16 BMatP= 4.61D-14
 IDIUse=1 WtCom= 1.00D+00 WtEn= 0.00D+00
 Coeff-Com:  0.261D-05-0.719D-05 0.197D-04-0.337D-04-0.313D-03 0.132D-02
 Coeff-Com:  0.168D-01-0.148D+00 0.113D+01
 Coeff:      0.261D-05-0.719D-05 0.197D-04-0.337D-04-0.313D-03 0.132D-02
 Coeff:      0.168D-01-0.148D+00 0.113D+01
 Gap=     0.377 Goal=   None    Shift=    0.000
 RMSDP=8.50D-09 MaxDP=2.73D-08 DE=-1.10D-13 OVMax= 0.00D+00

 SCF Done:  E(RHF) =  -6.25421749110     A.U. after    9 cycles
            NFock=  9  Conv=0.85D-08     -V/T= 1.8556
 KE= 7.309648470068D+00 PE=-4.034853138728D+01 EE= 1.342901149803D+01
 Leave Link  502 at Mon Dec  6 11:53:16 2021, MaxMem=   104857600 cpu:               0.1 elap:               0.2
 (Enter /usr/local/g16reva03/legacy_cpu/g16/l601.exe)
 Copying SCF densities to generalized density rwf, IOpCl= 0 IROHF=0.

 **********************************************************************

            Population analysis using the SCF density.

 **********************************************************************

 Alpha  occ. eigenvalues --   -0.69625  -0.65826  -0.59554  -0.50650  -0.38898
 Alpha  occ. eigenvalues --   -0.24491
 Alpha virt. eigenvalues --    0.13210   0.33395   0.56032   0.79749   1.02052
 Alpha virt. eigenvalues --    1.18636
          Condensed to atoms (all electrons):
               1          2          3          4          5          6
     1  H    0.740736   0.308213  -0.023443  -0.006807   0.000123   0.000026
     2  H    0.308213   0.643819   0.055991  -0.016943  -0.001236   0.000079
     3  H   -0.023443   0.055991   0.711482   0.285933  -0.020667  -0.006572
     4  H   -0.006807  -0.016943   0.285933   0.676067   0.074564  -0.018722
     5  H    0.000123  -0.001236  -0.020667   0.074564   0.695718   0.276624
     6  H    0.000026   0.000079  -0.006572  -0.018722   0.276624   0.687038
     7  H   -0.000000   0.000003   0.000104  -0.001518  -0.019613   0.079101
     8  H   -0.000000  -0.000000   0.000026   0.000094  -0.006481  -0.019613
     9  H    0.000000  -0.000000  -0.000000   0.000004   0.000094  -0.001518
    10  H    0.000000   0.000000  -0.000000  -0.000000   0.000026   0.000104
    11  H   -0.000000   0.000000   0.000000  -0.000000  -0.000000   0.000003
    12  H    0.000000  -0.000000   0.000000   0.000000  -0.000000  -0.000000
               7          8          9         10         11         12
     1  H   -0.000000  -0.000000   0.000000   0.000000  -0.000000   0.000000
     2  H    0.000003  -0.000000  -0.000000   0.000000   0.000000  -0.000000
     3  H    0.000104   0.000026  -0.000000  -0.000000   0.000000   0.000000
     4  H   -0.001518   0.000094   0.000004  -0.000000  -0.000000   0.000000
     5  H   -0.019613  -0.006481   0.000094   0.000026  -0.000000  -0.000000
     6  H    0.079101  -0.019613  -0.001518   0.000104   0.000003  -0.000000
     7  H    0.687038   0.276624  -0.018722  -0.006572   0.000079   0.000026
     8  H    0.276624   0.695718   0.074564  -0.020667  -0.001236   0.000123
     9  H   -0.018722   0.074564   0.676067   0.285933  -0.016943  -0.006807
    10  H   -0.006572  -0.020667   0.285933   0.711482   0.055991  -0.023443
    11  H    0.000079  -0.001236  -0.016943   0.055991   0.643819   0.308213
    12  H    0.000026   0.000123  -0.006807  -0.023443   0.308213   0.740736
 Mulliken charges:
               1
     1  H   -0.018847
     2  H    0.010074
     3  H   -0.002854
     4  H    0.007329
     5  H    0.000849
     6  H    0.003448
     7  H    0.003448
     8  H    0.000849
     9  H    0.007329
    10  H   -0.002854
    11  H    0.010074
    12  H   -0.018847
 Sum of Mulliken charges =  -0.00000
 Mulliken charges with hydrogens summed into heavy atoms:
               1
 Electronic spatial extent (au):  <R**2>=           1832.8794
 Charge=             -0.0000 electrons
 Dipole moment (field-independent basis, Debye):
    X=              0.0000    Y=              0.0000    Z=             -0.0000  Tot=              0.0000
 Quadrupole moment (field-independent basis, Debye-Ang):
   XX=            -11.0668   YY=            -11.0668   ZZ=            -12.7305
   XY=              0.0000   XZ=              0.0000   YZ=              0.0000
 Traceless Quadrupole moment (field-independent basis, Debye-Ang):
   XX=              0.5545   YY=              0.5545   ZZ=             -1.1091
   XY=              0.0000   XZ=              0.0000   YZ=              0.0000
 Octapole moment (field-independent basis, Debye-Ang**2):
  XXX=              0.0000  YYY=              0.0000  ZZZ=           -210.0527  XYY=              0.0000
  XXY=              0.0000  XXZ=            -60.8676  XZZ=              0.0000  YZZ=              0.0000
  YYZ=            -60.8676  XYZ=              0.0000
 Hexadecapole moment (field-independent basis, Debye-Ang**3):
 XXXX=             -9.1418 YYYY=             -9.1418 ZZZZ=          -3087.4471 XXXY=              0.0000
 XXXZ=              0.0000 YYYX=              0.0000 YYYZ=              0.0000 ZZZX=              0.0000
 ZZZY=              0.0000 XXYY=             -3.0473 XXZZ=           -470.3576 YYZZ=           -470.3576
 XXYZ=              0.0000 YYXZ=              0.0000 ZZXY=              0.0000
 N-N= 1.335565392807D+01 E-N=-4.034853139162D+01  KE= 7.309648470068D+00
 No NMR shielding tensors so no spin-rotation constants.
 Leave Link  601 at Mon Dec  6 11:53:17 2021, MaxMem=   104857600 cpu:               0.1 elap:               0.2
 (Enter /usr/local/g16reva03/legacy_cpu/g16/l9999.exe)
 1\1\GINC-USER1\SP\RHF\STO-3G\H12\AMKINY01\06-Dec-2021\0\\#P rhf nosymm
  output=matrix int=noraf scf=conven\\Hydrogen_Molecule\\0,1\H\H,1,1.\H
 ,2,1.,1,180.\H,3,1.,2,180.,1,0.,0\H,4,1.,3,180.,1,0.,0\H,5,1.,4,180.,1
 ,0.,0\H,6,1.,5,180.,1,0.,0\H,7,1.,6,180.,1,0.,0\H,8,1.,7,180.,1,0.,0\H
 ,9,1.,8,180.,1,0.,0\H,10,1.,9,180.,1,0.,0\H,11,1.,10,180.,1,0.,0\\Vers
 ion=EM64L-G16RevA.03\HF=-6.2542175\RMSD=8.499e-09\Dipole=0.,0.,0.\Quad
 rupole=0.4122869,0.4122869,-0.8245739,0.,0.,0.\PG=D*H [C*(H1H1H1H1H1H1
 .H1H1H1H1H1H1)]\\@


 HIGGLEDY-PIGGLEDY
 NIC'LAUS COPERNICUS
 LOOKED AT THE UNIVERSE,
 SPOKE TO THE THRONG;
 GIVE UP YOUR PTOLOMY,
 RISE UP AND FOLLOW ME,
 HELIOCENTRICALLY
 PTOLEMY'S WRONG.
   -- NANCY L. STARK

 Writing WrtUnf unformatted file "h12_1_Ang.mat"
 Gaussian matrix elements                                         Version   2 NLab=11 Len12L=8 Len4L=8
 Write SHELL TO ATOM MAP                   from file     0 offset           0 length                  12 to matrix element file.
 Write SHELL TYPES                         from file     0 offset           0 length                  12 to matrix element file.
 Write NUMBER OF PRIMITIVES PER SHELL      from file     0 offset           0 length                  12 to matrix element file.
 Write PRIMITIVE EXPONENTS                 from file     0 offset           0 length                  36 to matrix element file.
 Write CONTRACTION COEFFICIENTS            from file     0 offset           0 length                  36 to matrix element file.
 Write P(S=P) CONTRACTION COEFFICIENTS     from file     0 offset           0 length                  36 to matrix element file.
 Write COORDINATES OF EACH SHELL           from file     0 offset           0 length                  36 to matrix element file.
 Write GAUSSIAN SCALARS                    from file   501 offset           0 to matrix element file.
 Write INTEGER ISO                         from file     0 offset           0 length                  12 to matrix element file.
 Write INTEGER SPIN                        from file     0 offset           0 length                  12 to matrix element file.
 Write REAL ZEFFECTIVE                     from file     0 offset           0 length                  12 to matrix element file.
 Write REAL GFACTOR                        from file     0 offset           0 length                  12 to matrix element file.
 Write REAL ZNUCLEAR                       from file     0 offset           0 length                  12 to matrix element file.
 Write NUCLEAR GRADIENT                    from file 10584 offset           0 length                  36 to matrix element file.
 Array NUCLEAR FORCE CONSTANTS              on  file 10585 does not exist.
 Write ELECTRIC DIPOLE MOMENT              from file     0 offset           0 length                   3 to matrix element file.
 Write OVERLAP                             from file   514 offset           0 length                  78 to matrix element file.
 Write CORE HAMILTONIAN ALPHA              from file   515 offset           0 length                  78 to matrix element file.
 Write CORE HAMILTONIAN BETA               from file   515 offset          78 length                  78 to matrix element file.
 Write KINETIC ENERGY                      from file   516 offset           0 length                  78 to matrix element file.
 Write ORTHOGONAL BASIS                    from file   685 offset           0 length                 144 to matrix element file.
 Write DIPOLE INTEGRALS                    from file   518 offset           0 length                 234 to matrix element file.
 Write DIP VEL INTEGRALS                   from file   572 offset           0 length                 234 to matrix element file.
 Write R X DEL INTEGRALS                   from file   572 offset         234 length                 234 to matrix element file.
 Write ALPHA ORBITAL ENERGIES              from file     0 offset           0 length                  12 to matrix element file.
 Write ALPHA MO COEFFICIENTS               from file 10524 offset           0 length                 144 to matrix element file.
 Write ALPHA DENSITY MATRIX                from file 10528 offset           0 length                  78 to matrix element file.
 Write ALPHA SCF DENSITY MATRIX            from file 10528 offset           0 length                  78 to matrix element file.
 Write ALPHA FOCK MATRIX                   from file 10536 offset           0 length                  78 to matrix element file.
 Write REGULAR 2E INTEGRALS                to matrix element file, NR=1 ITotal=        2237.
 Job cpu time:       0 days  0 hours  0 minutes  2.6 seconds.
 Elapsed time:       0 days  0 hours  0 minutes  3.0 seconds.
 File lengths (MBytes):  RWF=     72 Int=      4 D2E=      0 Chk=      8 Scr=      8
 Normal termination of Gaussian 16 at Mon Dec  6 11:53:17 2021.
