 Entering Gaussian System, Link 0=g16
 Input=h20.com
 Output=h20.log
 Initial command:
 /usr/local/g16reva03/legacy_cpu/g16/l1.exe "/scratch/global/g16/Gau-17921.inp" -scrdir="/scratch/global/g16/"
 Entering Link 1 = /usr/local/g16reva03/legacy_cpu/g16/l1.exe PID=     17922.
  
 Copyright (c) 1988,1990,1992,1993,1995,1998,2003,2009,2016,
            Gaussian, Inc.  All Rights Reserved.
  
 This is part of the Gaussian(R) 16 program.  It is based on
 the Gaussian(R) 09 system (copyright 2009, Gaussian, Inc.),
 the Gaussian(R) 03 system (copyright 2003, Gaussian, Inc.),
 the Gaussian(R) 98 system (copyright 1998, Gaussian, Inc.),
 the Gaussian(R) 94 system (copyright 1995, Gaussian, Inc.),
 the Gaussian 92(TM) system (copyright 1992, Gaussian, Inc.),
 the Gaussian 90(TM) system (copyright 1990, Gaussian, Inc.),
 the Gaussian 88(TM) system (copyright 1988, Gaussian, Inc.),
 the Gaussian 86(TM) system (copyright 1986, Carnegie Mellon
 University), and the Gaussian 82(TM) system (copyright 1983,
 Carnegie Mellon University). Gaussian is a federally registered
 trademark of Gaussian, Inc.
  
 This software contains proprietary and confidential information,
 including trade secrets, belonging to Gaussian, Inc.
  
 This software is provided under written license and may be
 used, copied, transmitted, or stored only in accord with that
 written license.
  
 The following legend is applicable only to US Government
 contracts under FAR:
  
                    RESTRICTED RIGHTS LEGEND
  
 Use, reproduction and disclosure by the US Government is
 subject to restrictions as set forth in subparagraphs (a)
 and (c) of the Commercial Computer Software - Restricted
 Rights clause in FAR 52.227-19.
  
 Gaussian, Inc.
 340 Quinnipiac St., Bldg. 40, Wallingford CT 06492
  
  
 ---------------------------------------------------------------
 Warning -- This program may not be used in any manner that
 competes with the business of Gaussian, Inc. or will provide
 assistance to any competitor of Gaussian, Inc.  The licensee
 of this program is prohibited from giving any competitor of
 Gaussian, Inc. access to this program.  By using this program,
 the user acknowledges that Gaussian, Inc. is engaged in the
 business of creating and licensing software in the field of
 computational chemistry and represents and warrants to the
 licensee that it is not a competitor of Gaussian, Inc. and that
 it will not use this program in any manner prohibited above.
 ---------------------------------------------------------------
  

 Cite this work as:
 Gaussian 16, Revision A.03,
 M. J. Frisch, G. W. Trucks, H. B. Schlegel, G. E. Scuseria, 
 M. A. Robb, J. R. Cheeseman, G. Scalmani, V. Barone, 
 G. A. Petersson, H. Nakatsuji, X. Li, M. Caricato, A. V. Marenich, 
 J. Bloino, B. G. Janesko, R. Gomperts, B. Mennucci, H. P. Hratchian, 
 J. V. Ortiz, A. F. Izmaylov, J. L. Sonnenberg, D. Williams-Young, 
 F. Ding, F. Lipparini, F. Egidi, J. Goings, B. Peng, A. Petrone, 
 T. Henderson, D. Ranasinghe, V. G. Zakrzewski, J. Gao, N. Rega, 
 G. Zheng, W. Liang, M. Hada, M. Ehara, K. Toyota, R. Fukuda, 
 J. Hasegawa, M. Ishida, T. Nakajima, Y. Honda, O. Kitao, H. Nakai, 
 T. Vreven, K. Throssell, J. A. Montgomery, Jr., J. E. Peralta, 
 F. Ogliaro, M. J. Bearpark, J. J. Heyd, E. N. Brothers, K. N. Kudin, 
 V. N. Staroverov, T. A. Keith, R. Kobayashi, J. Normand, 
 K. Raghavachari, A. P. Rendell, J. C. Burant, S. S. Iyengar, 
 J. Tomasi, M. Cossi, J. M. Millam, M. Klene, C. Adamo, R. Cammi, 
 J. W. Ochterski, R. L. Martin, K. Morokuma, O. Farkas, 
 J. B. Foresman, and D. J. Fox, Gaussian, Inc., Wallingford CT, 2016.
 
 ******************************************
 Gaussian 16:  EM64L-G16RevA.03 25-Dec-2016
                 6-Dec-2021 
 ******************************************
 ------------------------------------------------
 #P rhf nosymm output=matrix int=noraf scf=conven
 ------------------------------------------------
 1/38=1,172=1/1;
 2/12=2,15=1,17=6,18=5,40=1/2;
 3/25=20,28=1,30=1,116=1/1,2,3,8,20;
 4//1;
 5/5=1,29=1/2;
 6/7=2,8=2,9=2,10=2,28=1/1;
 99/5=1,6=100000,9=1/99;
 Leave Link    1 at Mon Dec  6 11:54:41 2021, MaxMem=           0 cpu:               0.1 elap:               0.2
 (Enter /usr/local/g16reva03/legacy_cpu/g16/l101.exe)
 -----------------
 Hydrogen_Molecule
 -----------------
 Symbolic Z-matrix:
 Charge =  0 Multiplicity = 1
 H
 H                    1     1. 
 H                    2     1.       1     180. 
 H                    3     1.       2     180.     1     0.       0
 H                    4     1.       3     180.     1     0.       0
 H                    5     1.       4     180.     1     0.       0
 H                    6     1.       5     180.     1     0.       0
 H                    7     1.       6     180.     1     0.       0
 H                    8     1.       7     180.     1     0.       0
 H                    9     1.       8     180.     1     0.       0
 H                    10    1.       9     180.     1     0.       0
 H                    11    1.       10    180.     1     0.       0
 H                    12    1.       11    180.     1     0.       0
 H                    13    1.       12    180.     1     0.       0
 H                    14    1.       13    180.     1     0.       0
 H                    15    1.       14    180.     1     0.       0
 H                    16    1.       15    180.     1     0.       0
 H                    17    1.       16    180.     1     0.       0
 H                    18    1.       17    180.     1     0.       0
 H                    19    1.       18    180.     1     0.       0
 
 ITRead=  0  0  0  0  0  0  0  0  0  0  0  0  0  0  0  0  0  0  0  0
 MicOpt= -1 -1 -1 -1 -1 -1 -1 -1 -1 -1 -1 -1 -1 -1 -1 -1 -1 -1 -1 -1
 NAtoms=     20 NQM=       20 NQMF=       0 NMMI=      0 NMMIF=      0
                NMic=       0 NMicF=      0.
                    Isotopes and Nuclear Properties:
 (Nuclear quadrupole moments (NQMom) in fm**2, nuclear magnetic moments (NMagM)
  in nuclear magnetons)

  Atom         1           2           3           4           5           6           7           8           9          10
 IAtWgt=           1           1           1           1           1           1           1           1           1           1
 AtmWgt=   1.0078250   1.0078250   1.0078250   1.0078250   1.0078250   1.0078250   1.0078250   1.0078250   1.0078250   1.0078250
 NucSpn=           1           1           1           1           1           1           1           1           1           1
 AtZEff=  -0.0000000  -0.0000000  -0.0000000  -0.0000000  -0.0000000  -0.0000000  -0.0000000  -0.0000000  -0.0000000  -0.0000000
 NQMom=    0.0000000   0.0000000   0.0000000   0.0000000   0.0000000   0.0000000   0.0000000   0.0000000   0.0000000   0.0000000
 NMagM=    2.7928460   2.7928460   2.7928460   2.7928460   2.7928460   2.7928460   2.7928460   2.7928460   2.7928460   2.7928460
 AtZNuc=   1.0000000   1.0000000   1.0000000   1.0000000   1.0000000   1.0000000   1.0000000   1.0000000   1.0000000   1.0000000

  Atom        11          12          13          14          15          16          17          18          19          20
 IAtWgt=           1           1           1           1           1           1           1           1           1           1
 AtmWgt=   1.0078250   1.0078250   1.0078250   1.0078250   1.0078250   1.0078250   1.0078250   1.0078250   1.0078250   1.0078250
 NucSpn=           1           1           1           1           1           1           1           1           1           1
 AtZEff=  -0.0000000  -0.0000000  -0.0000000  -0.0000000  -0.0000000  -0.0000000  -0.0000000  -0.0000000  -0.0000000  -0.0000000
 NQMom=    0.0000000   0.0000000   0.0000000   0.0000000   0.0000000   0.0000000   0.0000000   0.0000000   0.0000000   0.0000000
 NMagM=    2.7928460   2.7928460   2.7928460   2.7928460   2.7928460   2.7928460   2.7928460   2.7928460   2.7928460   2.7928460
 AtZNuc=   1.0000000   1.0000000   1.0000000   1.0000000   1.0000000   1.0000000   1.0000000   1.0000000   1.0000000   1.0000000
 Leave Link  101 at Mon Dec  6 11:54:41 2021, MaxMem=   104857600 cpu:               0.2 elap:               0.2
 (Enter /usr/local/g16reva03/legacy_cpu/g16/l202.exe)
                          Input orientation:                          
 ---------------------------------------------------------------------
 Center     Atomic      Atomic             Coordinates (Angstroms)
 Number     Number       Type             X           Y           Z
 ---------------------------------------------------------------------
      1          1           0        0.000000    0.000000    0.000000
      2          1           0        0.000000    0.000000    1.000000
      3          1           0        0.000000    0.000000    2.000000
      4          1           0        0.000000    0.000000    3.000000
      5          1           0        0.000000    0.000000    4.000000
      6          1           0        0.000000    0.000000    5.000000
      7          1           0        0.000000    0.000000    6.000000
      8          1           0        0.000000    0.000000    7.000000
      9          1           0        0.000000    0.000000    8.000000
     10          1           0        0.000000    0.000000    9.000000
     11          1           0        0.000000    0.000000   10.000000
     12          1           0        0.000000    0.000000   11.000000
     13          1           0        0.000000    0.000000   12.000000
     14          1           0        0.000000    0.000000   13.000000
     15          1           0        0.000000    0.000000   14.000000
     16          1           0        0.000000    0.000000   15.000000
     17          1           0        0.000000    0.000000   16.000000
     18          1           0        0.000000    0.000000   17.000000
     19          1           0        0.000000    0.000000   18.000000
     20          1           0        0.000000    0.000000   19.000000
 ---------------------------------------------------------------------
                    Distance matrix (angstroms):
                    1          2          3          4          5
     1  H    0.000000
     2  H    1.000000   0.000000
     3  H    2.000000   1.000000   0.000000
     4  H    3.000000   2.000000   1.000000   0.000000
     5  H    4.000000   3.000000   2.000000   1.000000   0.000000
     6  H    5.000000   4.000000   3.000000   2.000000   1.000000
     7  H    6.000000   5.000000   4.000000   3.000000   2.000000
     8  H    7.000000   6.000000   5.000000   4.000000   3.000000
     9  H    8.000000   7.000000   6.000000   5.000000   4.000000
    10  H    9.000000   8.000000   7.000000   6.000000   5.000000
    11  H   10.000000   9.000000   8.000000   7.000000   6.000000
    12  H   11.000000  10.000000   9.000000   8.000000   7.000000
    13  H   12.000000  11.000000  10.000000   9.000000   8.000000
    14  H   13.000000  12.000000  11.000000  10.000000   9.000000
    15  H   14.000000  13.000000  12.000000  11.000000  10.000000
    16  H   15.000000  14.000000  13.000000  12.000000  11.000000
    17  H   16.000000  15.000000  14.000000  13.000000  12.000000
    18  H   17.000000  16.000000  15.000000  14.000000  13.000000
    19  H   18.000000  17.000000  16.000000  15.000000  14.000000
    20  H   19.000000  18.000000  17.000000  16.000000  15.000000
                    6          7          8          9         10
     6  H    0.000000
     7  H    1.000000   0.000000
     8  H    2.000000   1.000000   0.000000
     9  H    3.000000   2.000000   1.000000   0.000000
    10  H    4.000000   3.000000   2.000000   1.000000   0.000000
    11  H    5.000000   4.000000   3.000000   2.000000   1.000000
    12  H    6.000000   5.000000   4.000000   3.000000   2.000000
    13  H    7.000000   6.000000   5.000000   4.000000   3.000000
    14  H    8.000000   7.000000   6.000000   5.000000   4.000000
    15  H    9.000000   8.000000   7.000000   6.000000   5.000000
    16  H   10.000000   9.000000   8.000000   7.000000   6.000000
    17  H   11.000000  10.000000   9.000000   8.000000   7.000000
    18  H   12.000000  11.000000  10.000000   9.000000   8.000000
    19  H   13.000000  12.000000  11.000000  10.000000   9.000000
    20  H   14.000000  13.000000  12.000000  11.000000  10.000000
                   11         12         13         14         15
    11  H    0.000000
    12  H    1.000000   0.000000
    13  H    2.000000   1.000000   0.000000
    14  H    3.000000   2.000000   1.000000   0.000000
    15  H    4.000000   3.000000   2.000000   1.000000   0.000000
    16  H    5.000000   4.000000   3.000000   2.000000   1.000000
    17  H    6.000000   5.000000   4.000000   3.000000   2.000000
    18  H    7.000000   6.000000   5.000000   4.000000   3.000000
    19  H    8.000000   7.000000   6.000000   5.000000   4.000000
    20  H    9.000000   8.000000   7.000000   6.000000   5.000000
                   16         17         18         19         20
    16  H    0.000000
    17  H    1.000000   0.000000
    18  H    2.000000   1.000000   0.000000
    19  H    3.000000   2.000000   1.000000   0.000000
    20  H    4.000000   3.000000   2.000000   1.000000   0.000000
 Symmetry turned off by external request.
 Stoichiometry    H20
 Framework group  D*H[C*(HHHHHHHHHH.HHHHHHHHHH)]
 Deg. of freedom    10
 Full point group                 D*H     NOp   8
 Rotational constants (GHZ):           0.0000000           0.7540678           0.7540678
 Leave Link  202 at Mon Dec  6 11:54:41 2021, MaxMem=   104857600 cpu:               0.1 elap:               0.1
 (Enter /usr/local/g16reva03/legacy_cpu/g16/l301.exe)
 Standard basis: STO-3G (5D, 7F)
 Ernie: Thresh=  0.10000D-02 Tol=  0.10000D-05 Strict=F.
    20 basis functions,    60 primitive gaussians,    20 cartesian basis functions
    10 alpha electrons       10 beta electrons
       nuclear repulsion energy        27.4932925293 Hartrees.
 IExCor=    0 DFT=F Ex=HF Corr=None ExCW=0 ScaHFX=  1.000000
 ScaDFX=  1.000000  1.000000  1.000000  1.000000 ScalE2=  1.000000  1.000000
 IRadAn=      5 IRanWt=     -1 IRanGd=            0 ICorTp=0 IEmpDi=  4
 NAtoms=   20 NActive=   20 NUniq=   20 SFac= 1.00D+00 NAtFMM=   60 NAOKFM=F Big=F
 Integral buffers will be    131072 words long.
 Regular integral format.
 Two-electron integral symmetry is turned off.
 Leave Link  301 at Mon Dec  6 11:54:42 2021, MaxMem=   104857600 cpu:               0.1 elap:               0.1
 (Enter /usr/local/g16reva03/legacy_cpu/g16/l302.exe)
 NPDir=0 NMtPBC=     1 NCelOv=     1 NCel=       1 NClECP=     1 NCelD=      1
         NCelK=      1 NCelE2=     1 NClLst=     1 CellRange=     0.0.
 One-electron integrals computed using PRISM.
 NBasis=    20 RedAO= T EigKep=  2.16D-01  NBF=    20
 NBsUse=    20 1.00D-06 EigRej= -1.00D+00 NBFU=    20
 Leave Link  302 at Mon Dec  6 11:54:42 2021, MaxMem=   104857600 cpu:               0.1 elap:               0.1
 (Enter /usr/local/g16reva03/legacy_cpu/g16/l303.exe)
 DipDrv:  MaxL=1.
 Leave Link  303 at Mon Dec  6 11:54:42 2021, MaxMem=   104857600 cpu:               0.1 elap:               0.1
 (Enter /usr/local/g16reva03/legacy_cpu/g16/l308.exe)
 Leave Link  308 at Mon Dec  6 11:54:42 2021, MaxMem=   104857600 cpu:               0.1 elap:               0.1
 (Enter /usr/local/g16reva03/legacy_cpu/g16/l320.exe)
 Enter DskPsm, NBasis=  20 NBas6D=  20 NShell=  20 IDoSP=4.
 Out2e will use a cutoff of  1.00D-10
 FoFCou: FMM=F IPFlag=           0 FMFlag=           0 FMFlg1=           0
         NFxFlg=           0 DoJE=F BraDBF=F KetDBF=F FulRan=T
         wScrn=  0.000000 ICntrl=       600 IOpCl=  9 I1Cent=           0 NGrid=           0
         NMat0=    0 NMatS0=      0 NMatT0=    0 NMatD0=    0 NMtDS0=    0 NMtDT0=    0
 Symmetry not used in FoFCou.
         7941 integrals produced for a total of         7941.
 Leave Link  320 at Mon Dec  6 11:54:42 2021, MaxMem=   104857600 cpu:               0.1 elap:               0.1
 (Enter /usr/local/g16reva03/legacy_cpu/g16/l401.exe)
 ExpMin= 1.69D-01 ExpMax= 3.43D+00 ExpMxC= 3.43D+00 IAcc=3 IRadAn=         5 AccDes= 0.00D+00
 Harris functional with IExCor=  205 and IRadAn=       5 diagonalized for initial guess.
 HarFok:  IExCor=  205 AccDes= 0.00D+00 IRadAn=         5 IDoV= 1 UseB2=F ITyADJ=14
 ICtDFT=  3500011 ScaDFX=  1.000000  1.000000  1.000000  1.000000
 FoFCou: FMM=F IPFlag=           0 FMFlag=      100000 FMFlg1=           0
         NFxFlg=           0 DoJE=T BraDBF=F KetDBF=T FulRan=T
         wScrn=  0.000000 ICntrl=       500 IOpCl=  0 I1Cent=   200000004 NGrid=           0
         NMat0=    1 NMatS0=      1 NMatT0=    0 NMatD0=    1 NMtDS0=    0 NMtDT0=    0
 Symmetry not used in FoFCou.
 Harris En= -11.3339735008225    
 JPrj=0 DoOrth=F DoCkMO=F.
 Leave Link  401 at Mon Dec  6 11:54:44 2021, MaxMem=   104857600 cpu:               2.3 elap:               2.3
 (Enter /usr/local/g16reva03/legacy_cpu/g16/l502.exe)
 Two-electron integral symmetry not used.
 Closed shell SCF:
 Using DIIS extrapolation, IDIIS=  1040.
 Unsorted integral processing.
 NGot=   104857600 LenX=   104593672 LenY=   104592790
 Requested convergence on RMS density matrix=1.00D-08 within 128 cycles.
 Requested convergence on MAX density matrix=1.00D-06.
 Requested convergence on             energy=1.00D-06.
 No special actions if energy rises.

 Cycle   1  Pass 1  IDiag  1:
 E= -10.3897524688156    
 DIIS: error= 1.33D-02 at cycle   1 NSaved=   1.
 NSaved= 1 IEnMin= 1 EnMin= -10.3897524688156     IErMin= 1 ErrMin= 1.33D-02
 ErrMax= 1.33D-02  0.00D+00 EMaxC= 1.00D-01 BMatC= 3.71D-03 BMatP= 3.71D-03
 IDIUse=3 WtCom= 8.67D-01 WtEn= 1.33D-01
 Coeff-Com:  0.100D+01
 Coeff-En:   0.100D+01
 Coeff:      0.100D+01
 Gap=     0.232 Goal=   None    Shift=    0.000
 GapD=    0.232 DampG=1.000 DampE=0.500 DampFc=0.5000 IDamp=-1.
 Damping current iteration by 5.00D-01
 RMSDP=9.82D-03 MaxDP=2.54D-02              OVMax= 0.00D+00

 Cycle   2  Pass 1  IDiag  1:
 E= -10.3978053554970     Delta-E=       -0.008052886681 Rises=F Damp=T
 DIIS: error= 9.21D-03 at cycle   2 NSaved=   2.
 NSaved= 2 IEnMin= 2 EnMin= -10.3978053554970     IErMin= 2 ErrMin= 9.21D-03
 ErrMax= 9.21D-03  0.00D+00 EMaxC= 1.00D-01 BMatC= 2.08D-03 BMatP= 3.71D-03
 IDIUse=3 WtCom= 9.08D-01 WtEn= 9.21D-02
 Coeff-Com: -0.207D+01 0.307D+01
 Coeff-En:   0.000D+00 0.100D+01
 Coeff:     -0.188D+01 0.288D+01
 Gap=     0.268 Goal=   None    Shift=    0.000
 RMSDP=1.23D-02 MaxDP=3.32D-02 DE=-8.05D-03 OVMax= 0.00D+00

 Cycle   3  Pass 1  IDiag  1:
 E= -10.4155644893306     Delta-E=       -0.017759133834 Rises=F Damp=F
 DIIS: error= 2.28D-03 at cycle   3 NSaved=   3.
 NSaved= 3 IEnMin= 3 EnMin= -10.4155644893306     IErMin= 3 ErrMin= 2.28D-03
 ErrMax= 2.28D-03  0.00D+00 EMaxC= 1.00D-01 BMatC= 1.47D-04 BMatP= 2.08D-03
 IDIUse=3 WtCom= 9.77D-01 WtEn= 2.28D-02
 Coeff-Com:  0.449D+00-0.900D+00 0.145D+01
 Coeff-En:   0.000D+00 0.000D+00 0.100D+01
 Coeff:      0.439D+00-0.880D+00 0.144D+01
 Gap=     0.286 Goal=   None    Shift=    0.000
 RMSDP=3.61D-03 MaxDP=1.21D-02 DE=-1.78D-02 OVMax= 0.00D+00

 Cycle   4  Pass 1  IDiag  1:
 E= -10.4165159108224     Delta-E=       -0.000951421492 Rises=F Damp=F
 DIIS: error= 3.20D-04 at cycle   4 NSaved=   4.
 NSaved= 4 IEnMin= 4 EnMin= -10.4165159108224     IErMin= 4 ErrMin= 3.20D-04
 ErrMax= 3.20D-04  0.00D+00 EMaxC= 1.00D-01 BMatC= 4.88D-06 BMatP= 1.47D-04
 IDIUse=3 WtCom= 9.97D-01 WtEn= 3.20D-03
 Coeff-Com: -0.437D-01 0.137D+00-0.409D+00 0.132D+01
 Coeff-En:   0.000D+00 0.000D+00 0.000D+00 0.100D+01
 Coeff:     -0.436D-01 0.137D+00-0.408D+00 0.131D+01
 Gap=     0.288 Goal=   None    Shift=    0.000
 RMSDP=4.17D-04 MaxDP=1.86D-03 DE=-9.51D-04 OVMax= 0.00D+00

 Cycle   5  Pass 1  IDiag  1:
 E= -10.4165367929505     Delta-E=       -0.000020882128 Rises=F Damp=F
 DIIS: error= 8.28D-05 at cycle   5 NSaved=   5.
 NSaved= 5 IEnMin= 5 EnMin= -10.4165367929505     IErMin= 5 ErrMin= 8.28D-05
 ErrMax= 8.28D-05  0.00D+00 EMaxC= 1.00D-01 BMatC= 2.10D-07 BMatP= 4.88D-06
 IDIUse=1 WtCom= 1.00D+00 WtEn= 0.00D+00
 Coeff-Com:  0.130D-02 0.170D-03-0.219D-01-0.115D+00 0.114D+01
 Coeff:      0.130D-02 0.170D-03-0.219D-01-0.115D+00 0.114D+01
 Gap=     0.288 Goal=   None    Shift=    0.000
 RMSDP=1.20D-04 MaxDP=5.42D-04 DE=-2.09D-05 OVMax= 0.00D+00

 Cycle   6  Pass 1  IDiag  1:
 E= -10.4165379710716     Delta-E=       -0.000001178121 Rises=F Damp=F
 DIIS: error= 1.28D-05 at cycle   6 NSaved=   6.
 NSaved= 6 IEnMin= 6 EnMin= -10.4165379710716     IErMin= 6 ErrMin= 1.28D-05
 ErrMax= 1.28D-05  0.00D+00 EMaxC= 1.00D-01 BMatC= 5.27D-09 BMatP= 2.10D-07
 IDIUse=1 WtCom= 1.00D+00 WtEn= 0.00D+00
 Coeff-Com:  0.171D-02-0.559D-02 0.168D-01-0.394D-01-0.119D+00 0.115D+01
 Coeff:      0.171D-02-0.559D-02 0.168D-01-0.394D-01-0.119D+00 0.115D+01
 Gap=     0.289 Goal=   None    Shift=    0.000
 RMSDP=1.81D-05 MaxDP=8.42D-05 DE=-1.18D-06 OVMax= 0.00D+00

 Cycle   7  Pass 1  IDiag  1:
 E= -10.4165379942127     Delta-E=       -0.000000023141 Rises=F Damp=F
 DIIS: error= 2.68D-06 at cycle   7 NSaved=   7.
 NSaved= 7 IEnMin= 7 EnMin= -10.4165379942127     IErMin= 7 ErrMin= 2.68D-06
 ErrMax= 2.68D-06  0.00D+00 EMaxC= 1.00D-01 BMatC= 1.60D-10 BMatP= 5.27D-09
 IDIUse=1 WtCom= 1.00D+00 WtEn= 0.00D+00
 Coeff-Com: -0.450D-03 0.849D-03-0.266D-03 0.559D-02-0.295D-01-0.320D-01
 Coeff-Com:  0.106D+01
 Coeff:     -0.450D-03 0.849D-03-0.266D-03 0.559D-02-0.295D-01-0.320D-01
 Coeff:      0.106D+01
 Gap=     0.289 Goal=   None    Shift=    0.000
 RMSDP=2.45D-06 MaxDP=9.36D-06 DE=-2.31D-08 OVMax= 0.00D+00

 Cycle   8  Pass 1  IDiag  1:
 E= -10.4165379947953     Delta-E=       -0.000000000583 Rises=F Damp=F
 DIIS: error= 4.50D-07 at cycle   8 NSaved=   8.
 NSaved= 8 IEnMin= 8 EnMin= -10.4165379947953     IErMin= 8 ErrMin= 4.50D-07
 ErrMax= 4.50D-07  0.00D+00 EMaxC= 1.00D-01 BMatC= 3.89D-12 BMatP= 1.60D-10
 IDIUse=1 WtCom= 1.00D+00 WtEn= 0.00D+00
 Coeff-Com: -0.389D-04 0.184D-03-0.708D-03 0.159D-02 0.538D-02-0.451D-01
 Coeff-Com: -0.493D-01 0.109D+01
 Coeff:     -0.389D-04 0.184D-03-0.708D-03 0.159D-02 0.538D-02-0.451D-01
 Coeff:     -0.493D-01 0.109D+01
 Gap=     0.289 Goal=   None    Shift=    0.000
 RMSDP=3.01D-07 MaxDP=9.05D-07 DE=-5.83D-10 OVMax= 0.00D+00

 Cycle   9  Pass 1  IDiag  1:
 E= -10.4165379948073     Delta-E=       -0.000000000012 Rises=F Damp=F
 DIIS: error= 8.06D-08 at cycle   9 NSaved=   9.
 NSaved= 9 IEnMin= 9 EnMin= -10.4165379948073     IErMin= 9 ErrMin= 8.06D-08
 ErrMax= 8.06D-08  0.00D+00 EMaxC= 1.00D-01 BMatC= 9.84D-14 BMatP= 3.89D-12
 IDIUse=1 WtCom= 1.00D+00 WtEn= 0.00D+00
 Coeff-Com:  0.156D-04-0.328D-04 0.184D-04-0.140D-03 0.498D-03 0.836D-03
 Coeff-Com: -0.211D-01 0.123D-01 0.101D+01
 Coeff:      0.156D-04-0.328D-04 0.184D-04-0.140D-03 0.498D-03 0.836D-03
 Coeff:     -0.211D-01 0.123D-01 0.101D+01
 Gap=     0.289 Goal=   None    Shift=    0.000
 RMSDP=8.27D-08 MaxDP=3.43D-07 DE=-1.20D-11 OVMax= 0.00D+00

 Cycle  10  Pass 1  IDiag  1:
 E= -10.4165379948077     Delta-E=       -0.000000000000 Rises=F Damp=F
 DIIS: error= 9.77D-09 at cycle  10 NSaved=  10.
 NSaved=10 IEnMin=10 EnMin= -10.4165379948077     IErMin=10 ErrMin= 9.77D-09
 ErrMax= 9.77D-09  0.00D+00 EMaxC= 1.00D-01 BMatC= 2.07D-15 BMatP= 9.84D-14
 IDIUse=1 WtCom= 1.00D+00 WtEn= 0.00D+00
 Coeff-Com:  0.180D-05-0.558D-05 0.178D-04-0.397D-04-0.898D-04 0.109D-02
 Coeff-Com:  0.246D-03-0.242D-01 0.307D-01 0.992D+00
 Coeff:      0.180D-05-0.558D-05 0.178D-04-0.397D-04-0.898D-04 0.109D-02
 Coeff:      0.246D-03-0.242D-01 0.307D-01 0.992D+00
 Gap=     0.289 Goal=   None    Shift=    0.000
 RMSDP=9.95D-09 MaxDP=3.55D-08 DE=-3.62D-13 OVMax= 0.00D+00

 SCF Done:  E(RHF) =  -10.4165379948     A.U. after   10 cycles
            NFock= 10  Conv=0.99D-08     -V/T= 1.8535
 KE= 1.220390936681D+01 PE=-7.768197109649D+01 EE= 2.756823120560D+01
 Leave Link  502 at Mon Dec  6 11:54:44 2021, MaxMem=   104857600 cpu:               0.1 elap:               0.1
 (Enter /usr/local/g16reva03/legacy_cpu/g16/l601.exe)
 Copying SCF densities to generalized density rwf, IOpCl= 0 IROHF=0.

 **********************************************************************

            Population analysis using the SCF density.

 **********************************************************************

 Alpha  occ. eigenvalues --   -0.70289  -0.68852  -0.66482  -0.63156  -0.58826
 Alpha  occ. eigenvalues --   -0.53426  -0.46872  -0.39072  -0.29994  -0.20113
 Alpha virt. eigenvalues --    0.08745   0.20912   0.34415   0.48627   0.63317
 Alpha virt. eigenvalues --    0.78127   0.92447   1.05382   1.15828   1.22669
          Condensed to atoms (all electrons):
               1          2          3          4          5          6
     1  H    0.744160   0.307232  -0.023838  -0.006760   0.000129   0.000026
     2  H    0.307232   0.642712   0.057571  -0.016800  -0.001296   0.000078
     3  H   -0.023838   0.057571   0.715537   0.283254  -0.021166  -0.006474
     4  H   -0.006760  -0.016800   0.283254   0.673718   0.078558  -0.018420
     5  H    0.000129  -0.001296  -0.021166   0.078558   0.701170   0.270995
     6  H    0.000026   0.000078  -0.006474  -0.018420   0.270995   0.682533
     7  H   -0.000000   0.000004   0.000112  -0.001667  -0.020317   0.087412
     8  H   -0.000000  -0.000000   0.000025   0.000090  -0.006296  -0.019010
     9  H    0.000000  -0.000000  -0.000000   0.000005   0.000105  -0.001832
    10  H    0.000000   0.000000  -0.000000  -0.000000   0.000025   0.000095
    11  H   -0.000000   0.000000   0.000000  -0.000000  -0.000000   0.000006
    12  H    0.000000  -0.000000   0.000000   0.000000  -0.000000  -0.000000
    13  H    0.000000   0.000000  -0.000000   0.000000   0.000000  -0.000000
    14  H    0.000000   0.000000   0.000000  -0.000000   0.000000   0.000000
    15  H    0.000000   0.000000   0.000000   0.000000  -0.000000   0.000000
    16  H    0.000000   0.000000   0.000000   0.000000   0.000000  -0.000000
    17  H    0.000000   0.000000   0.000000   0.000000   0.000000   0.000000
    18  H    0.000000   0.000000   0.000000   0.000000   0.000000   0.000000
    19  H    0.000000   0.000000   0.000000   0.000000   0.000000   0.000000
    20  H    0.000000   0.000000   0.000000   0.000000   0.000000   0.000000
               7          8          9         10         11         12
     1  H   -0.000000  -0.000000   0.000000   0.000000  -0.000000   0.000000
     2  H    0.000004  -0.000000  -0.000000   0.000000   0.000000  -0.000000
     3  H    0.000112   0.000025  -0.000000  -0.000000   0.000000   0.000000
     4  H   -0.001667   0.000090   0.000005  -0.000000  -0.000000   0.000000
     5  H   -0.020317  -0.006296   0.000105   0.000025  -0.000000  -0.000000
     6  H    0.087412  -0.019010  -0.001832   0.000095   0.000006  -0.000000
     7  H    0.695380   0.265498  -0.019896  -0.006215   0.000101   0.000024
     8  H    0.265498   0.686619   0.091340  -0.019343  -0.001899   0.000098
     9  H   -0.019896   0.091340   0.692030   0.263280  -0.019609  -0.006192
    10  H   -0.006215  -0.019343   0.263280   0.689403   0.092479  -0.019609
    11  H    0.000101  -0.001899  -0.019609   0.092479   0.689403   0.263280
    12  H    0.000024   0.000098  -0.006192  -0.019609   0.263280   0.692030
    13  H   -0.000000   0.000006   0.000098  -0.001899  -0.019343   0.091340
    14  H   -0.000000  -0.000000   0.000024   0.000101  -0.006215  -0.019896
    15  H    0.000000  -0.000000  -0.000000   0.000006   0.000095  -0.001832
    16  H    0.000000   0.000000  -0.000000  -0.000000   0.000025   0.000105
    17  H   -0.000000   0.000000   0.000000  -0.000000  -0.000000   0.000005
    18  H    0.000000  -0.000000   0.000000   0.000000  -0.000000  -0.000000
    19  H    0.000000   0.000000  -0.000000   0.000000   0.000000  -0.000000
    20  H    0.000000   0.000000   0.000000  -0.000000   0.000000   0.000000
              13         14         15         16         17         18
     1  H    0.000000   0.000000   0.000000   0.000000   0.000000   0.000000
     2  H    0.000000   0.000000   0.000000   0.000000   0.000000   0.000000
     3  H   -0.000000   0.000000   0.000000   0.000000   0.000000   0.000000
     4  H    0.000000  -0.000000   0.000000   0.000000   0.000000   0.000000
     5  H    0.000000   0.000000  -0.000000   0.000000   0.000000   0.000000
     6  H   -0.000000   0.000000   0.000000  -0.000000   0.000000   0.000000
     7  H   -0.000000  -0.000000   0.000000   0.000000  -0.000000   0.000000
     8  H    0.000006  -0.000000  -0.000000   0.000000   0.000000  -0.000000
     9  H    0.000098   0.000024  -0.000000  -0.000000   0.000000   0.000000
    10  H   -0.001899   0.000101   0.000006  -0.000000  -0.000000   0.000000
    11  H   -0.019343  -0.006215   0.000095   0.000025  -0.000000  -0.000000
    12  H    0.091340  -0.019896  -0.001832   0.000105   0.000005  -0.000000
    13  H    0.686619   0.265498  -0.019010  -0.006296   0.000090   0.000025
    14  H    0.265498   0.695380   0.087412  -0.020317  -0.001667   0.000112
    15  H   -0.019010   0.087412   0.682533   0.270995  -0.018420  -0.006474
    16  H   -0.006296  -0.020317   0.270995   0.701170   0.078558  -0.021166
    17  H    0.000090  -0.001667  -0.018420   0.078558   0.673718   0.283254
    18  H    0.000025   0.000112  -0.006474  -0.021166   0.283254   0.715537
    19  H   -0.000000   0.000004   0.000078  -0.001296  -0.016800   0.057571
    20  H   -0.000000  -0.000000   0.000026   0.000129  -0.006760  -0.023838
              19         20
     1  H    0.000000   0.000000
     2  H    0.000000   0.000000
     3  H    0.000000   0.000000
     4  H    0.000000   0.000000
     5  H    0.000000   0.000000
     6  H    0.000000   0.000000
     7  H    0.000000   0.000000
     8  H    0.000000   0.000000
     9  H   -0.000000   0.000000
    10  H    0.000000  -0.000000
    11  H    0.000000   0.000000
    12  H   -0.000000   0.000000
    13  H   -0.000000  -0.000000
    14  H    0.000004  -0.000000
    15  H    0.000078   0.000026
    16  H   -0.001296   0.000129
    17  H   -0.016800  -0.006760
    18  H    0.057571  -0.023838
    19  H    0.642712   0.307232
    20  H    0.307232   0.744160
 Mulliken charges:
               1
     1  H   -0.020949
     2  H    0.010500
     3  H   -0.005021
     4  H    0.008023
     5  H   -0.001906
     6  H    0.004594
     7  H   -0.000435
     8  H    0.002872
     9  H    0.000646
    10  H    0.001677
    11  H    0.001677
    12  H    0.000646
    13  H    0.002872
    14  H   -0.000435
    15  H    0.004594
    16  H   -0.001906
    17  H    0.008023
    18  H   -0.005021
    19  H    0.010500
    20  H   -0.020949
 Sum of Mulliken charges =  -0.00000
 Mulliken charges with hydrogens summed into heavy atoms:
               1
 Electronic spatial extent (au):  <R**2>=           8866.9987
 Charge=              0.0000 electrons
 Dipole moment (field-independent basis, Debye):
    X=              0.0000    Y=              0.0000    Z=              0.0000  Tot=              0.0000
 Quadrupole moment (field-independent basis, Debye-Ang):
   XX=            -18.4225   YY=            -18.4225   ZZ=            -25.6568
   XY=              0.0000   XZ=              0.0000   YZ=              0.0000
 Traceless Quadrupole moment (field-independent basis, Debye-Ang):
   XX=              2.4114   YY=              2.4114   ZZ=             -4.8228
   XY=              0.0000   XZ=              0.0000   YZ=              0.0000
 Octapole moment (field-independent basis, Debye-Ang**2):
  XXX=              0.0000  YYY=              0.0000  ZZZ=           -731.2184  XYY=              0.0000
  XXY=              0.0000  XXZ=           -175.0140  XZZ=              0.0000  YZZ=              0.0000
  YYZ=           -175.0140  XYZ=              0.0000
 Hexadecapole moment (field-independent basis, Debye-Ang**3):
 XXXX=            -15.2018 YYYY=            -15.2018 ZZZZ=         -18095.9531 XXXY=              0.0000
 XXXZ=              0.0000 YYYX=              0.0000 YYYZ=              0.0000 ZZZX=              0.0000
 ZZZY=              0.0000 XXYY=             -5.0673 XXZZ=          -2282.9209 YYZZ=          -2282.9209
 XXYZ=              0.0000 YYXZ=              0.0000 ZZXY=              0.0000
 N-N= 2.749329252927D+01 E-N=-7.768197112464D+01  KE= 1.220390936681D+01
 No NMR shielding tensors so no spin-rotation constants.
 Leave Link  601 at Mon Dec  6 11:54:45 2021, MaxMem=   104857600 cpu:               0.1 elap:               0.1
 (Enter /usr/local/g16reva03/legacy_cpu/g16/l9999.exe)
 1\1\GINC-USER1\SP\RHF\STO-3G\H20\AMKINY01\06-Dec-2021\0\\#P rhf nosymm
  output=matrix int=noraf scf=conven\\Hydrogen_Molecule\\0,1\H\H,1,1.\H
 ,2,1.,1,180.\H,3,1.,2,180.,1,0.,0\H,4,1.,3,180.,1,0.,0\H,5,1.,4,180.,1
 ,0.,0\H,6,1.,5,180.,1,0.,0\H,7,1.,6,180.,1,0.,0\H,8,1.,7,180.,1,0.,0\H
 ,9,1.,8,180.,1,0.,0\H,10,1.,9,180.,1,0.,0\H,11,1.,10,180.,1,0.,0\H,12,
 1.,11,180.,1,0.,0\H,13,1.,12,180.,1,0.,0\H,14,1.,13,180.,1,0.,0\H,15,1
 .,14,180.,1,0.,0\H,16,1.,15,180.,1,0.,0\H,17,1.,16,180.,1,0.,0\H,18,1.
 ,17,180.,1,0.,0\H,19,1.,18,180.,1,0.,0\\Version=EM64L-G16RevA.03\HF=-1
 0.416538\RMSD=9.945e-09\Dipole=0.,0.,0.\Quadrupole=1.7928307,1.7928307
 ,-3.5856613,0.,0.,0.\PG=D*H [C*(H1H1H1H1H1H1H1H1H1H1.H1H1H1H1H1H1H1H1H
 1H1)]\\@


 IN THE LONG RUN, DIGGING FOR TRUTH HAS ALWAYS PROVED NOT ONLY 
 MORE INTERESTING BUT MORE PROFITABLE THAN DIGGING FOR GOLD.

                             -- GEORGE R. HARRISON

 Writing WrtUnf unformatted file "h20_1_Ang.mat"
 Gaussian matrix elements                                         Version   2 NLab=11 Len12L=8 Len4L=8
 Write SHELL TO ATOM MAP                   from file     0 offset           0 length                  20 to matrix element file.
 Write SHELL TYPES                         from file     0 offset           0 length                  20 to matrix element file.
 Write NUMBER OF PRIMITIVES PER SHELL      from file     0 offset           0 length                  20 to matrix element file.
 Write PRIMITIVE EXPONENTS                 from file     0 offset           0 length                  60 to matrix element file.
 Write CONTRACTION COEFFICIENTS            from file     0 offset           0 length                  60 to matrix element file.
 Write P(S=P) CONTRACTION COEFFICIENTS     from file     0 offset           0 length                  60 to matrix element file.
 Write COORDINATES OF EACH SHELL           from file     0 offset           0 length                  60 to matrix element file.
 Write GAUSSIAN SCALARS                    from file   501 offset           0 to matrix element file.
 Write INTEGER ISO                         from file     0 offset           0 length                  20 to matrix element file.
 Write INTEGER SPIN                        from file     0 offset           0 length                  20 to matrix element file.
 Write REAL ZEFFECTIVE                     from file     0 offset           0 length                  20 to matrix element file.
 Write REAL GFACTOR                        from file     0 offset           0 length                  20 to matrix element file.
 Write REAL ZNUCLEAR                       from file     0 offset           0 length                  20 to matrix element file.
 Write NUCLEAR GRADIENT                    from file 10584 offset           0 length                  60 to matrix element file.
 Array NUCLEAR FORCE CONSTANTS              on  file 10585 does not exist.
 Write ELECTRIC DIPOLE MOMENT              from file     0 offset           0 length                   3 to matrix element file.
 Write OVERLAP                             from file   514 offset           0 length                 210 to matrix element file.
 Write CORE HAMILTONIAN ALPHA              from file   515 offset           0 length                 210 to matrix element file.
 Write CORE HAMILTONIAN BETA               from file   515 offset         210 length                 210 to matrix element file.
 Write KINETIC ENERGY                      from file   516 offset           0 length                 210 to matrix element file.
 Write ORTHOGONAL BASIS                    from file   685 offset           0 length                 400 to matrix element file.
 Write DIPOLE INTEGRALS                    from file   518 offset           0 length                 630 to matrix element file.
 Write DIP VEL INTEGRALS                   from file   572 offset           0 length                 630 to matrix element file.
 Write R X DEL INTEGRALS                   from file   572 offset         630 length                 630 to matrix element file.
 Write ALPHA ORBITAL ENERGIES              from file     0 offset           0 length                  20 to matrix element file.
 Write ALPHA MO COEFFICIENTS               from file 10524 offset           0 length                 400 to matrix element file.
 Write ALPHA DENSITY MATRIX                from file 10528 offset           0 length                 210 to matrix element file.
 Write ALPHA SCF DENSITY MATRIX            from file 10528 offset           0 length                 210 to matrix element file.
 Write ALPHA FOCK MATRIX                   from file 10536 offset           0 length                 210 to matrix element file.
 Write REGULAR 2E INTEGRALS                to matrix element file, NR=1 ITotal=        7941.
 Job cpu time:       0 days  0 hours  0 minutes  3.7 seconds.
 Elapsed time:       0 days  0 hours  0 minutes  3.8 seconds.
 File lengths (MBytes):  RWF=     72 Int=      4 D2E=      0 Chk=      8 Scr=      8
 Normal termination of Gaussian 16 at Mon Dec  6 11:54:45 2021.
