 Entering Gaussian System, Link 0=g16
 Input=h24.com
 Output=h24.log
 Initial command:
 /usr/local/g16reva03/legacy_cpu/g16/l1.exe "/scratch/global/g16/Gau-18051.inp" -scrdir="/scratch/global/g16/"
 Entering Link 1 = /usr/local/g16reva03/legacy_cpu/g16/l1.exe PID=     18052.
  
 Copyright (c) 1988,1990,1992,1993,1995,1998,2003,2009,2016,
            Gaussian, Inc.  All Rights Reserved.
  
 This is part of the Gaussian(R) 16 program.  It is based on
 the Gaussian(R) 09 system (copyright 2009, Gaussian, Inc.),
 the Gaussian(R) 03 system (copyright 2003, Gaussian, Inc.),
 the Gaussian(R) 98 system (copyright 1998, Gaussian, Inc.),
 the Gaussian(R) 94 system (copyright 1995, Gaussian, Inc.),
 the Gaussian 92(TM) system (copyright 1992, Gaussian, Inc.),
 the Gaussian 90(TM) system (copyright 1990, Gaussian, Inc.),
 the Gaussian 88(TM) system (copyright 1988, Gaussian, Inc.),
 the Gaussian 86(TM) system (copyright 1986, Carnegie Mellon
 University), and the Gaussian 82(TM) system (copyright 1983,
 Carnegie Mellon University). Gaussian is a federally registered
 trademark of Gaussian, Inc.
  
 This software contains proprietary and confidential information,
 including trade secrets, belonging to Gaussian, Inc.
  
 This software is provided under written license and may be
 used, copied, transmitted, or stored only in accord with that
 written license.
  
 The following legend is applicable only to US Government
 contracts under FAR:
  
                    RESTRICTED RIGHTS LEGEND
  
 Use, reproduction and disclosure by the US Government is
 subject to restrictions as set forth in subparagraphs (a)
 and (c) of the Commercial Computer Software - Restricted
 Rights clause in FAR 52.227-19.
  
 Gaussian, Inc.
 340 Quinnipiac St., Bldg. 40, Wallingford CT 06492
  
  
 ---------------------------------------------------------------
 Warning -- This program may not be used in any manner that
 competes with the business of Gaussian, Inc. or will provide
 assistance to any competitor of Gaussian, Inc.  The licensee
 of this program is prohibited from giving any competitor of
 Gaussian, Inc. access to this program.  By using this program,
 the user acknowledges that Gaussian, Inc. is engaged in the
 business of creating and licensing software in the field of
 computational chemistry and represents and warrants to the
 licensee that it is not a competitor of Gaussian, Inc. and that
 it will not use this program in any manner prohibited above.
 ---------------------------------------------------------------
  

 Cite this work as:
 Gaussian 16, Revision A.03,
 M. J. Frisch, G. W. Trucks, H. B. Schlegel, G. E. Scuseria, 
 M. A. Robb, J. R. Cheeseman, G. Scalmani, V. Barone, 
 G. A. Petersson, H. Nakatsuji, X. Li, M. Caricato, A. V. Marenich, 
 J. Bloino, B. G. Janesko, R. Gomperts, B. Mennucci, H. P. Hratchian, 
 J. V. Ortiz, A. F. Izmaylov, J. L. Sonnenberg, D. Williams-Young, 
 F. Ding, F. Lipparini, F. Egidi, J. Goings, B. Peng, A. Petrone, 
 T. Henderson, D. Ranasinghe, V. G. Zakrzewski, J. Gao, N. Rega, 
 G. Zheng, W. Liang, M. Hada, M. Ehara, K. Toyota, R. Fukuda, 
 J. Hasegawa, M. Ishida, T. Nakajima, Y. Honda, O. Kitao, H. Nakai, 
 T. Vreven, K. Throssell, J. A. Montgomery, Jr., J. E. Peralta, 
 F. Ogliaro, M. J. Bearpark, J. J. Heyd, E. N. Brothers, K. N. Kudin, 
 V. N. Staroverov, T. A. Keith, R. Kobayashi, J. Normand, 
 K. Raghavachari, A. P. Rendell, J. C. Burant, S. S. Iyengar, 
 J. Tomasi, M. Cossi, J. M. Millam, M. Klene, C. Adamo, R. Cammi, 
 J. W. Ochterski, R. L. Martin, K. Morokuma, O. Farkas, 
 J. B. Foresman, and D. J. Fox, Gaussian, Inc., Wallingford CT, 2016.
 
 ******************************************
 Gaussian 16:  EM64L-G16RevA.03 25-Dec-2016
                 6-Dec-2021 
 ******************************************
 ------------------------------------------------
 #P rhf nosymm output=matrix int=noraf scf=conven
 ------------------------------------------------
 1/38=1,172=1/1;
 2/12=2,15=1,17=6,18=5,40=1/2;
 3/25=20,28=1,30=1,116=1/1,2,3,8,20;
 4//1;
 5/5=1,29=1/2;
 6/7=2,8=2,9=2,10=2,28=1/1;
 99/5=1,6=100000,9=1/99;
 Leave Link    1 at Mon Dec  6 11:55:57 2021, MaxMem=           0 cpu:               0.1 elap:               0.1
 (Enter /usr/local/g16reva03/legacy_cpu/g16/l101.exe)
 -----------------
 Hydrogen_Molecule
 -----------------
 Symbolic Z-matrix:
 Charge =  0 Multiplicity = 1
 H
 H                    1     1. 
 H                    2     1.       1     180. 
 H                    3     1.       2     180.     1     0.       0
 H                    4     1.       3     180.     1     0.       0
 H                    5     1.       4     180.     1     0.       0
 H                    6     1.       5     180.     1     0.       0
 H                    7     1.       6     180.     1     0.       0
 H                    8     1.       7     180.     1     0.       0
 H                    9     1.       8     180.     1     0.       0
 H                    10    1.       9     180.     1     0.       0
 H                    11    1.       10    180.     1     0.       0
 H                    12    1.       11    180.     1     0.       0
 H                    13    1.       12    180.     1     0.       0
 H                    14    1.       13    180.     1     0.       0
 H                    15    1.       14    180.     1     0.       0
 H                    16    1.       15    180.     1     0.       0
 H                    17    1.       16    180.     1     0.       0
 H                    18    1.       17    180.     1     0.       0
 H                    19    1.       18    180.     1     0.       0
 H                    20    1.       19    180.     1     0.       0
 H                    21    1.       20    180.     1     0.       0
 H                    22    1.       21    180.     1     0.       0
 H                    23    1.       22    180.     1     0.       0
 
 ITRead=  0  0  0  0  0  0  0  0  0  0  0  0  0  0  0  0  0  0  0  0
 ITRead=  0  0  0  0
 MicOpt= -1 -1 -1 -1 -1 -1 -1 -1 -1 -1 -1 -1 -1 -1 -1 -1 -1 -1 -1 -1
 MicOpt= -1 -1 -1 -1
 NAtoms=     24 NQM=       24 NQMF=       0 NMMI=      0 NMMIF=      0
                NMic=       0 NMicF=      0.
                    Isotopes and Nuclear Properties:
 (Nuclear quadrupole moments (NQMom) in fm**2, nuclear magnetic moments (NMagM)
  in nuclear magnetons)

  Atom         1           2           3           4           5           6           7           8           9          10
 IAtWgt=           1           1           1           1           1           1           1           1           1           1
 AtmWgt=   1.0078250   1.0078250   1.0078250   1.0078250   1.0078250   1.0078250   1.0078250   1.0078250   1.0078250   1.0078250
 NucSpn=           1           1           1           1           1           1           1           1           1           1
 AtZEff=  -0.0000000  -0.0000000  -0.0000000  -0.0000000  -0.0000000  -0.0000000  -0.0000000  -0.0000000  -0.0000000  -0.0000000
 NQMom=    0.0000000   0.0000000   0.0000000   0.0000000   0.0000000   0.0000000   0.0000000   0.0000000   0.0000000   0.0000000
 NMagM=    2.7928460   2.7928460   2.7928460   2.7928460   2.7928460   2.7928460   2.7928460   2.7928460   2.7928460   2.7928460
 AtZNuc=   1.0000000   1.0000000   1.0000000   1.0000000   1.0000000   1.0000000   1.0000000   1.0000000   1.0000000   1.0000000

  Atom        11          12          13          14          15          16          17          18          19          20
 IAtWgt=           1           1           1           1           1           1           1           1           1           1
 AtmWgt=   1.0078250   1.0078250   1.0078250   1.0078250   1.0078250   1.0078250   1.0078250   1.0078250   1.0078250   1.0078250
 NucSpn=           1           1           1           1           1           1           1           1           1           1
 AtZEff=  -0.0000000  -0.0000000  -0.0000000  -0.0000000  -0.0000000  -0.0000000  -0.0000000  -0.0000000  -0.0000000  -0.0000000
 NQMom=    0.0000000   0.0000000   0.0000000   0.0000000   0.0000000   0.0000000   0.0000000   0.0000000   0.0000000   0.0000000
 NMagM=    2.7928460   2.7928460   2.7928460   2.7928460   2.7928460   2.7928460   2.7928460   2.7928460   2.7928460   2.7928460
 AtZNuc=   1.0000000   1.0000000   1.0000000   1.0000000   1.0000000   1.0000000   1.0000000   1.0000000   1.0000000   1.0000000

  Atom        21          22          23          24
 IAtWgt=           1           1           1           1
 AtmWgt=   1.0078250   1.0078250   1.0078250   1.0078250
 NucSpn=           1           1           1           1
 AtZEff=  -0.0000000  -0.0000000  -0.0000000  -0.0000000
 NQMom=    0.0000000   0.0000000   0.0000000   0.0000000
 NMagM=    2.7928460   2.7928460   2.7928460   2.7928460
 AtZNuc=   1.0000000   1.0000000   1.0000000   1.0000000
 Leave Link  101 at Mon Dec  6 11:55:57 2021, MaxMem=   104857600 cpu:               0.2 elap:               0.2
 (Enter /usr/local/g16reva03/legacy_cpu/g16/l202.exe)
                          Input orientation:                          
 ---------------------------------------------------------------------
 Center     Atomic      Atomic             Coordinates (Angstroms)
 Number     Number       Type             X           Y           Z
 ---------------------------------------------------------------------
      1          1           0        0.000000    0.000000    0.000000
      2          1           0        0.000000    0.000000    1.000000
      3          1           0        0.000000    0.000000    2.000000
      4          1           0        0.000000    0.000000    3.000000
      5          1           0        0.000000    0.000000    4.000000
      6          1           0        0.000000    0.000000    5.000000
      7          1           0        0.000000    0.000000    6.000000
      8          1           0        0.000000    0.000000    7.000000
      9          1           0        0.000000    0.000000    8.000000
     10          1           0        0.000000    0.000000    9.000000
     11          1           0        0.000000    0.000000   10.000000
     12          1           0        0.000000    0.000000   11.000000
     13          1           0        0.000000    0.000000   12.000000
     14          1           0        0.000000    0.000000   13.000000
     15          1           0        0.000000    0.000000   14.000000
     16          1           0        0.000000    0.000000   15.000000
     17          1           0        0.000000    0.000000   16.000000
     18          1           0        0.000000    0.000000   17.000000
     19          1           0        0.000000    0.000000   18.000000
     20          1           0        0.000000    0.000000   19.000000
     21          1           0        0.000000    0.000000   20.000000
     22          1           0        0.000000    0.000000   21.000000
     23          1           0        0.000000    0.000000   22.000000
     24          1           0        0.000000    0.000000   23.000000
 ---------------------------------------------------------------------
                    Distance matrix (angstroms):
                    1          2          3          4          5
     1  H    0.000000
     2  H    1.000000   0.000000
     3  H    2.000000   1.000000   0.000000
     4  H    3.000000   2.000000   1.000000   0.000000
     5  H    4.000000   3.000000   2.000000   1.000000   0.000000
     6  H    5.000000   4.000000   3.000000   2.000000   1.000000
     7  H    6.000000   5.000000   4.000000   3.000000   2.000000
     8  H    7.000000   6.000000   5.000000   4.000000   3.000000
     9  H    8.000000   7.000000   6.000000   5.000000   4.000000
    10  H    9.000000   8.000000   7.000000   6.000000   5.000000
    11  H   10.000000   9.000000   8.000000   7.000000   6.000000
    12  H   11.000000  10.000000   9.000000   8.000000   7.000000
    13  H   12.000000  11.000000  10.000000   9.000000   8.000000
    14  H   13.000000  12.000000  11.000000  10.000000   9.000000
    15  H   14.000000  13.000000  12.000000  11.000000  10.000000
    16  H   15.000000  14.000000  13.000000  12.000000  11.000000
    17  H   16.000000  15.000000  14.000000  13.000000  12.000000
    18  H   17.000000  16.000000  15.000000  14.000000  13.000000
    19  H   18.000000  17.000000  16.000000  15.000000  14.000000
    20  H   19.000000  18.000000  17.000000  16.000000  15.000000
    21  H   20.000000  19.000000  18.000000  17.000000  16.000000
    22  H   21.000000  20.000000  19.000000  18.000000  17.000000
    23  H   22.000000  21.000000  20.000000  19.000000  18.000000
    24  H   23.000000  22.000000  21.000000  20.000000  19.000000
                    6          7          8          9         10
     6  H    0.000000
     7  H    1.000000   0.000000
     8  H    2.000000   1.000000   0.000000
     9  H    3.000000   2.000000   1.000000   0.000000
    10  H    4.000000   3.000000   2.000000   1.000000   0.000000
    11  H    5.000000   4.000000   3.000000   2.000000   1.000000
    12  H    6.000000   5.000000   4.000000   3.000000   2.000000
    13  H    7.000000   6.000000   5.000000   4.000000   3.000000
    14  H    8.000000   7.000000   6.000000   5.000000   4.000000
    15  H    9.000000   8.000000   7.000000   6.000000   5.000000
    16  H   10.000000   9.000000   8.000000   7.000000   6.000000
    17  H   11.000000  10.000000   9.000000   8.000000   7.000000
    18  H   12.000000  11.000000  10.000000   9.000000   8.000000
    19  H   13.000000  12.000000  11.000000  10.000000   9.000000
    20  H   14.000000  13.000000  12.000000  11.000000  10.000000
    21  H   15.000000  14.000000  13.000000  12.000000  11.000000
    22  H   16.000000  15.000000  14.000000  13.000000  12.000000
    23  H   17.000000  16.000000  15.000000  14.000000  13.000000
    24  H   18.000000  17.000000  16.000000  15.000000  14.000000
                   11         12         13         14         15
    11  H    0.000000
    12  H    1.000000   0.000000
    13  H    2.000000   1.000000   0.000000
    14  H    3.000000   2.000000   1.000000   0.000000
    15  H    4.000000   3.000000   2.000000   1.000000   0.000000
    16  H    5.000000   4.000000   3.000000   2.000000   1.000000
    17  H    6.000000   5.000000   4.000000   3.000000   2.000000
    18  H    7.000000   6.000000   5.000000   4.000000   3.000000
    19  H    8.000000   7.000000   6.000000   5.000000   4.000000
    20  H    9.000000   8.000000   7.000000   6.000000   5.000000
    21  H   10.000000   9.000000   8.000000   7.000000   6.000000
    22  H   11.000000  10.000000   9.000000   8.000000   7.000000
    23  H   12.000000  11.000000  10.000000   9.000000   8.000000
    24  H   13.000000  12.000000  11.000000  10.000000   9.000000
                   16         17         18         19         20
    16  H    0.000000
    17  H    1.000000   0.000000
    18  H    2.000000   1.000000   0.000000
    19  H    3.000000   2.000000   1.000000   0.000000
    20  H    4.000000   3.000000   2.000000   1.000000   0.000000
    21  H    5.000000   4.000000   3.000000   2.000000   1.000000
    22  H    6.000000   5.000000   4.000000   3.000000   2.000000
    23  H    7.000000   6.000000   5.000000   4.000000   3.000000
    24  H    8.000000   7.000000   6.000000   5.000000   4.000000
                   21         22         23         24
    21  H    0.000000
    22  H    1.000000   0.000000
    23  H    2.000000   1.000000   0.000000
    24  H    3.000000   2.000000   1.000000   0.000000
 Symmetry turned off by external request.
 Stoichiometry    H24
 Framework group  D*H[C*(HHHHHHHHHHHH.HHHHHHHHHHHH)]
 Deg. of freedom    12
 Full point group                 D*H     NOp   8
 Rotational constants (GHZ):           0.0000000           0.4360479           0.4360479
 Leave Link  202 at Mon Dec  6 11:55:57 2021, MaxMem=   104857600 cpu:               0.1 elap:               0.1
 (Enter /usr/local/g16reva03/legacy_cpu/g16/l301.exe)
 Standard basis: STO-3G (5D, 7F)
 Ernie: Thresh=  0.10000D-02 Tol=  0.10000D-05 Strict=F.
    24 basis functions,    72 primitive gaussians,    24 cartesian basis functions
    12 alpha electrons       12 beta electrons
       nuclear repulsion energy        35.2553713472 Hartrees.
 IExCor=    0 DFT=F Ex=HF Corr=None ExCW=0 ScaHFX=  1.000000
 ScaDFX=  1.000000  1.000000  1.000000  1.000000 ScalE2=  1.000000  1.000000
 IRadAn=      5 IRanWt=     -1 IRanGd=            0 ICorTp=0 IEmpDi=  4
 NAtoms=   24 NActive=   24 NUniq=   24 SFac= 1.00D+00 NAtFMM=   60 NAOKFM=F Big=F
 Integral buffers will be    131072 words long.
 Regular integral format.
 Two-electron integral symmetry is turned off.
 Leave Link  301 at Mon Dec  6 11:55:57 2021, MaxMem=   104857600 cpu:               0.1 elap:               0.1
 (Enter /usr/local/g16reva03/legacy_cpu/g16/l302.exe)
 NPDir=0 NMtPBC=     1 NCelOv=     1 NCel=       1 NClECP=     1 NCelD=      1
         NCelK=      1 NCelE2=     1 NClLst=     1 CellRange=     0.0.
 One-electron integrals computed using PRISM.
 NBasis=    24 RedAO= T EigKep=  2.15D-01  NBF=    24
 NBsUse=    24 1.00D-06 EigRej= -1.00D+00 NBFU=    24
 Leave Link  302 at Mon Dec  6 11:55:58 2021, MaxMem=   104857600 cpu:               0.1 elap:               0.2
 (Enter /usr/local/g16reva03/legacy_cpu/g16/l303.exe)
 DipDrv:  MaxL=1.
 Leave Link  303 at Mon Dec  6 11:55:58 2021, MaxMem=   104857600 cpu:               0.1 elap:               0.1
 (Enter /usr/local/g16reva03/legacy_cpu/g16/l308.exe)
 Leave Link  308 at Mon Dec  6 11:55:58 2021, MaxMem=   104857600 cpu:               0.1 elap:               0.1
 (Enter /usr/local/g16reva03/legacy_cpu/g16/l320.exe)
 Enter DskPsm, NBasis=  24 NBas6D=  24 NShell=  24 IDoSP=4.
 Out2e will use a cutoff of  1.00D-10
 FoFCou: FMM=F IPFlag=           0 FMFlag=           0 FMFlg1=           0
         NFxFlg=           0 DoJE=F BraDBF=F KetDBF=F FulRan=T
         wScrn=  0.000000 ICntrl=       600 IOpCl=  9 I1Cent=           0 NGrid=           0
         NMat0=    0 NMatS0=      0 NMatT0=    0 NMatD0=    0 NMtDS0=    0 NMtDT0=    0
 Symmetry not used in FoFCou.
        12041 integrals produced for a total of        12041.
 Leave Link  320 at Mon Dec  6 11:55:58 2021, MaxMem=   104857600 cpu:               0.1 elap:               0.1
 (Enter /usr/local/g16reva03/legacy_cpu/g16/l401.exe)
 ExpMin= 1.69D-01 ExpMax= 3.43D+00 ExpMxC= 3.43D+00 IAcc=3 IRadAn=         5 AccDes= 0.00D+00
 Harris functional with IExCor=  205 and IRadAn=       5 diagonalized for initial guess.
 HarFok:  IExCor=  205 AccDes= 0.00D+00 IRadAn=         5 IDoV= 1 UseB2=F ITyADJ=14
 ICtDFT=  3500011 ScaDFX=  1.000000  1.000000  1.000000  1.000000
 FoFCou: FMM=F IPFlag=           0 FMFlag=      100000 FMFlg1=           0
         NFxFlg=           0 DoJE=T BraDBF=F KetDBF=T FulRan=T
         wScrn=  0.000000 ICntrl=       500 IOpCl=  0 I1Cent=   200000004 NGrid=           0
         NMat0=    1 NMatS0=      1 NMatT0=    0 NMatD0=    1 NMtDS0=    0 NMtDT0=    0
 Symmetry not used in FoFCou.
 Harris En= -13.6073553114025    
 JPrj=0 DoOrth=F DoCkMO=F.
 Leave Link  401 at Mon Dec  6 11:56:01 2021, MaxMem=   104857600 cpu:               2.9 elap:               3.1
 (Enter /usr/local/g16reva03/legacy_cpu/g16/l502.exe)
 Two-electron integral symmetry not used.
 Closed shell SCF:
 Using DIIS extrapolation, IDIIS=  1040.
 Unsorted integral processing.
 NGot=   104857600 LenX=   104593268 LenY=   104592251
 Requested convergence on RMS density matrix=1.00D-08 within 128 cycles.
 Requested convergence on MAX density matrix=1.00D-06.
 Requested convergence on             energy=1.00D-06.
 No special actions if energy rises.

 Cycle   1  Pass 1  IDiag  1:
 E= -12.4672335874833    
 DIIS: error= 1.18D-02 at cycle   1 NSaved=   1.
 NSaved= 1 IEnMin= 1 EnMin= -12.4672335874833     IErMin= 1 ErrMin= 1.18D-02
 ErrMax= 1.18D-02  0.00D+00 EMaxC= 1.00D-01 BMatC= 3.80D-03 BMatP= 3.80D-03
 IDIUse=3 WtCom= 8.82D-01 WtEn= 1.18D-01
 Coeff-Com:  0.100D+01
 Coeff-En:   0.100D+01
 Coeff:      0.100D+01
 Gap=     0.203 Goal=   None    Shift=    0.000
 GapD=    0.203 DampG=1.000 DampE=0.500 DampFc=0.5000 IDamp=-1.
 Damping current iteration by 5.00D-01
 RMSDP=8.90D-03 MaxDP=2.53D-02              OVMax= 0.00D+00

 Cycle   2  Pass 1  IDiag  1:
 E= -12.4759765805074     Delta-E=       -0.008742993024 Rises=F Damp=T
 DIIS: error= 8.46D-03 at cycle   2 NSaved=   2.
 NSaved= 2 IEnMin= 2 EnMin= -12.4759765805074     IErMin= 2 ErrMin= 8.46D-03
 ErrMax= 8.46D-03  0.00D+00 EMaxC= 1.00D-01 BMatC= 2.21D-03 BMatP= 3.80D-03
 IDIUse=3 WtCom= 9.15D-01 WtEn= 8.46D-02
 Coeff-Com: -0.209D+01 0.309D+01
 Coeff-En:   0.000D+00 0.100D+01
 Coeff:     -0.191D+01 0.291D+01
 Gap=     0.239 Goal=   None    Shift=    0.000
 RMSDP=1.16D-02 MaxDP=3.33D-02 DE=-8.74D-03 OVMax= 0.00D+00

 Cycle   3  Pass 1  IDiag  1:
 E= -12.4965299944305     Delta-E=       -0.020553413923 Rises=F Damp=F
 DIIS: error= 2.55D-03 at cycle   3 NSaved=   3.
 NSaved= 3 IEnMin= 3 EnMin= -12.4965299944305     IErMin= 3 ErrMin= 2.55D-03
 ErrMax= 2.55D-03  0.00D+00 EMaxC= 1.00D-01 BMatC= 2.04D-04 BMatP= 2.21D-03
 IDIUse=3 WtCom= 9.75D-01 WtEn= 2.55D-02
 Coeff-Com:  0.587D+00-0.112D+01 0.153D+01
 Coeff-En:   0.000D+00 0.000D+00 0.100D+01
 Coeff:      0.572D+00-0.109D+01 0.152D+01
 Gap=     0.261 Goal=   None    Shift=    0.000
 RMSDP=3.93D-03 MaxDP=1.38D-02 DE=-2.06D-02 OVMax= 0.00D+00

 Cycle   4  Pass 1  IDiag  1:
 E= -12.4980210450157     Delta-E=       -0.001491050585 Rises=F Damp=F
 DIIS: error= 4.05D-04 at cycle   4 NSaved=   4.
 NSaved= 4 IEnMin= 4 EnMin= -12.4980210450157     IErMin= 4 ErrMin= 4.05D-04
 ErrMax= 4.05D-04  0.00D+00 EMaxC= 1.00D-01 BMatC= 9.16D-06 BMatP= 2.04D-04
 IDIUse=3 WtCom= 9.96D-01 WtEn= 4.05D-03
 Coeff-Com: -0.642D-01 0.188D+00-0.494D+00 0.137D+01
 Coeff-En:   0.000D+00 0.000D+00 0.000D+00 0.100D+01
 Coeff:     -0.639D-01 0.187D+00-0.492D+00 0.137D+01
 Gap=     0.263 Goal=   None    Shift=    0.000
 RMSDP=5.53D-04 MaxDP=2.63D-03 DE=-1.49D-03 OVMax= 0.00D+00

 Cycle   5  Pass 1  IDiag  1:
 E= -12.4980670644029     Delta-E=       -0.000046019387 Rises=F Damp=F
 DIIS: error= 1.17D-04 at cycle   5 NSaved=   5.
 NSaved= 5 IEnMin= 5 EnMin= -12.4980670644029     IErMin= 5 ErrMin= 1.17D-04
 ErrMax= 1.17D-04  0.00D+00 EMaxC= 1.00D-01 BMatC= 4.53D-07 BMatP= 9.16D-06
 IDIUse=3 WtCom= 9.99D-01 WtEn= 1.17D-03
 Coeff-Com: -0.115D-02 0.317D-02-0.254D-01-0.122D+00 0.115D+01
 Coeff-En:   0.000D+00 0.000D+00 0.000D+00 0.000D+00 0.100D+01
 Coeff:     -0.115D-02 0.316D-02-0.254D-01-0.122D+00 0.114D+01
 Gap=     0.264 Goal=   None    Shift=    0.000
 RMSDP=1.73D-04 MaxDP=8.05D-04 DE=-4.60D-05 OVMax= 0.00D+00

 Cycle   6  Pass 1  IDiag  1:
 E= -12.4980699600850     Delta-E=       -0.000002895682 Rises=F Damp=F
 DIIS: error= 2.55D-05 at cycle   6 NSaved=   6.
 NSaved= 6 IEnMin= 6 EnMin= -12.4980699600850     IErMin= 6 ErrMin= 2.55D-05
 ErrMax= 2.55D-05  0.00D+00 EMaxC= 1.00D-01 BMatC= 1.52D-08 BMatP= 4.53D-07
 IDIUse=1 WtCom= 1.00D+00 WtEn= 0.00D+00
 Coeff-Com:  0.396D-02-0.105D-01 0.254D-01-0.629D-01-0.718D-01 0.112D+01
 Coeff:      0.396D-02-0.105D-01 0.254D-01-0.629D-01-0.718D-01 0.112D+01
 Gap=     0.264 Goal=   None    Shift=    0.000
 RMSDP=2.55D-05 MaxDP=1.28D-04 DE=-2.90D-06 OVMax= 0.00D+00

 Cycle   7  Pass 1  IDiag  1:
 E= -12.4980700276424     Delta-E=       -0.000000067557 Rises=F Damp=F
 DIIS: error= 5.74D-06 at cycle   7 NSaved=   7.
 NSaved= 7 IEnMin= 7 EnMin= -12.4980700276424     IErMin= 7 ErrMin= 5.74D-06
 ErrMax= 5.74D-06  0.00D+00 EMaxC= 1.00D-01 BMatC= 7.34D-10 BMatP= 1.52D-08
 IDIUse=1 WtCom= 1.00D+00 WtEn= 0.00D+00
 Coeff-Com: -0.802D-03 0.138D-02 0.284D-03 0.759D-02-0.528D-01-0.109D-01
 Coeff-Com:  0.106D+01
 Coeff:     -0.802D-03 0.138D-02 0.284D-03 0.759D-02-0.528D-01-0.109D-01
 Coeff:      0.106D+01
 Gap=     0.264 Goal=   None    Shift=    0.000
 RMSDP=4.35D-06 MaxDP=1.95D-05 DE=-6.76D-08 OVMax= 0.00D+00

 Cycle   8  Pass 1  IDiag  1:
 E= -12.4980700304189     Delta-E=       -0.000000002776 Rises=F Damp=F
 DIIS: error= 9.06D-07 at cycle   8 NSaved=   8.
 NSaved= 8 IEnMin= 8 EnMin= -12.4980700304189     IErMin= 8 ErrMin= 9.06D-07
 ErrMax= 9.06D-07  0.00D+00 EMaxC= 1.00D-01 BMatC= 1.90D-11 BMatP= 7.34D-10
 IDIUse=1 WtCom= 1.00D+00 WtEn= 0.00D+00
 Coeff-Com: -0.100D-03 0.356D-03-0.119D-02 0.247D-02 0.608D-02-0.482D-01
 Coeff-Com: -0.871D-01 0.113D+01
 Coeff:     -0.100D-03 0.356D-03-0.119D-02 0.247D-02 0.608D-02-0.482D-01
 Coeff:     -0.871D-01 0.113D+01
 Gap=     0.264 Goal=   None    Shift=    0.000
 RMSDP=6.14D-07 MaxDP=2.66D-06 DE=-2.78D-09 OVMax= 0.00D+00

 Cycle   9  Pass 1  IDiag  1:
 E= -12.4980700304842     Delta-E=       -0.000000000065 Rises=F Damp=F
 DIIS: error= 1.09D-07 at cycle   9 NSaved=   9.
 NSaved= 9 IEnMin= 9 EnMin= -12.4980700304842     IErMin= 9 ErrMin= 1.09D-07
 ErrMax= 1.09D-07  0.00D+00 EMaxC= 1.00D-01 BMatC= 4.34D-13 BMatP= 1.90D-11
 IDIUse=1 WtCom= 1.00D+00 WtEn= 0.00D+00
 Coeff-Com:  0.410D-04-0.827D-04 0.612D-04-0.315D-03 0.931D-03 0.233D-02
 Coeff-Com: -0.204D-01-0.289D-01 0.105D+01
 Coeff:      0.410D-04-0.827D-04 0.612D-04-0.315D-03 0.931D-03 0.233D-02
 Coeff:     -0.204D-01-0.289D-01 0.105D+01
 Gap=     0.264 Goal=   None    Shift=    0.000
 RMSDP=1.44D-07 MaxDP=7.11D-07 DE=-6.52D-11 OVMax= 0.00D+00

 Cycle  10  Pass 1  IDiag  1:
 E= -12.4980700304858     Delta-E=       -0.000000000002 Rises=F Damp=F
 DIIS: error= 1.88D-08 at cycle  10 NSaved=  10.
 NSaved=10 IEnMin=10 EnMin= -12.4980700304858     IErMin=10 ErrMin= 1.88D-08
 ErrMax= 1.88D-08  0.00D+00 EMaxC= 1.00D-01 BMatC= 1.20D-14 BMatP= 4.34D-13
 IDIUse=1 WtCom= 1.00D+00 WtEn= 0.00D+00
 Coeff-Com: -0.523D-06-0.357D-05 0.320D-04-0.531D-04-0.174D-03 0.118D-02
 Coeff-Com:  0.298D-02-0.273D-01-0.637D-01 0.109D+01
 Coeff:     -0.523D-06-0.357D-05 0.320D-04-0.531D-04-0.174D-03 0.118D-02
 Coeff:      0.298D-02-0.273D-01-0.637D-01 0.109D+01
 Gap=     0.264 Goal=   None    Shift=    0.000
 RMSDP=2.28D-08 MaxDP=1.01D-07 DE=-1.63D-12 OVMax= 0.00D+00

 Cycle  11  Pass 1  IDiag  1:
 E= -12.4980700304859     Delta-E=       -0.000000000000 Rises=F Damp=F
 DIIS: error= 2.03D-09 at cycle  11 NSaved=  11.
 NSaved=11 IEnMin=11 EnMin= -12.4980700304859     IErMin=11 ErrMin= 2.03D-09
 ErrMax= 2.03D-09  0.00D+00 EMaxC= 1.00D-01 BMatC= 2.01D-16 BMatP= 1.20D-14
 IDIUse=1 WtCom= 1.00D+00 WtEn= 0.00D+00
 Coeff-Com: -0.140D-05 0.339D-05-0.583D-05 0.152D-04-0.104D-05-0.204D-03
 Coeff-Com:  0.212D-03 0.359D-02-0.223D-01-0.856D-01 0.110D+01
 Coeff:     -0.140D-05 0.339D-05-0.583D-05 0.152D-04-0.104D-05-0.204D-03
 Coeff:      0.212D-03 0.359D-02-0.223D-01-0.856D-01 0.110D+01
 Gap=     0.264 Goal=   None    Shift=    0.000
 RMSDP=3.12D-09 MaxDP=1.40D-08 DE=-9.95D-14 OVMax= 0.00D+00

 SCF Done:  E(RHF) =  -12.4980700305     A.U. after   11 cycles
            NFock= 11  Conv=0.31D-08     -V/T= 1.8531
 KE= 1.464969256293D+01 PE=-9.773617654514D+01 EE= 3.533304260450D+01
 Leave Link  502 at Mon Dec  6 11:56:01 2021, MaxMem=   104857600 cpu:               0.1 elap:               0.1
 (Enter /usr/local/g16reva03/legacy_cpu/g16/l601.exe)
 Copying SCF densities to generalized density rwf, IOpCl= 0 IROHF=0.

 **********************************************************************

            Population analysis using the SCF density.

 **********************************************************************

 Alpha  occ. eigenvalues --   -0.70390  -0.69383  -0.67719  -0.65390  -0.62371
 Alpha  occ. eigenvalues --   -0.58630  -0.54121  -0.48791  -0.42575  -0.35419
 Alpha  occ. eigenvalues --   -0.27346  -0.18886
 Alpha virt. eigenvalues --    0.07543   0.17620   0.28858   0.40638   0.52815
 Alpha virt. eigenvalues --    0.65249   0.77707   0.89825   1.01096   1.10893
 Alpha virt. eigenvalues --    1.18542   1.23431
          Condensed to atoms (all electrons):
               1          2          3          4          5          6
     1  H    0.744854   0.307108  -0.023916  -0.006754   0.000130   0.000026
     2  H    0.307108   0.642507   0.057768  -0.016775  -0.001303   0.000077
     3  H   -0.023916   0.057768   0.716330   0.282926  -0.021259  -0.006463
     4  H   -0.006754  -0.016775   0.282926   0.673337   0.079029  -0.018376
     5  H    0.000130  -0.001303  -0.021259   0.079029   0.702129   0.270353
     6  H    0.000026   0.000077  -0.006463  -0.018376   0.270353   0.681925
     7  H   -0.000000   0.000004   0.000113  -0.001684  -0.020431   0.088310
     8  H   -0.000000  -0.000000   0.000025   0.000089  -0.006275  -0.018939
     9  H    0.000000  -0.000000  -0.000000   0.000005   0.000107  -0.001864
    10  H    0.000000   0.000000  -0.000000  -0.000000   0.000024   0.000094
    11  H   -0.000000   0.000000   0.000000  -0.000000  -0.000000   0.000006
    12  H    0.000000  -0.000000   0.000000   0.000000  -0.000000  -0.000000
    13  H    0.000000   0.000000  -0.000000   0.000000   0.000000  -0.000000
    14  H    0.000000   0.000000   0.000000  -0.000000   0.000000   0.000000
    15  H    0.000000   0.000000   0.000000   0.000000  -0.000000   0.000000
    16  H    0.000000   0.000000   0.000000   0.000000   0.000000  -0.000000
    17  H    0.000000   0.000000   0.000000   0.000000   0.000000   0.000000
    18  H    0.000000   0.000000   0.000000   0.000000   0.000000   0.000000
    19  H    0.000000   0.000000   0.000000   0.000000   0.000000   0.000000
    20  H    0.000000   0.000000   0.000000   0.000000   0.000000   0.000000
    21  H    0.000000   0.000000   0.000000   0.000000   0.000000   0.000000
    22  H    0.000000   0.000000   0.000000   0.000000   0.000000   0.000000
    23  H    0.000000   0.000000   0.000000   0.000000   0.000000   0.000000
    24  H    0.000000   0.000000   0.000000   0.000000   0.000000   0.000000
               7          8          9         10         11         12
     1  H   -0.000000  -0.000000   0.000000   0.000000  -0.000000   0.000000
     2  H    0.000004  -0.000000  -0.000000   0.000000   0.000000  -0.000000
     3  H    0.000113   0.000025  -0.000000  -0.000000   0.000000   0.000000
     4  H   -0.001684   0.000089   0.000005  -0.000000  -0.000000   0.000000
     5  H   -0.020431  -0.006275   0.000107   0.000024  -0.000000  -0.000000
     6  H    0.088310  -0.018939  -0.001864   0.000094   0.000006  -0.000000
     7  H    0.696572   0.264365  -0.020040  -0.006181   0.000104   0.000024
     8  H    0.264365   0.685693   0.092904  -0.019233  -0.001954   0.000097
     9  H   -0.020040   0.092904   0.693571   0.261367  -0.019798  -0.006135
    10  H   -0.006181  -0.019233   0.261367   0.687987   0.095115  -0.019436
    11  H    0.000104  -0.001954  -0.019798   0.095115   0.691513   0.260090
    12  H    0.000024   0.000097  -0.006135  -0.019436   0.260090   0.689778
    13  H   -0.000000   0.000006   0.000101  -0.001992  -0.019612   0.095779
    14  H   -0.000000  -0.000000   0.000024   0.000099  -0.006122  -0.019612
    15  H    0.000000  -0.000000  -0.000000   0.000006   0.000099  -0.001992
    16  H    0.000000   0.000000  -0.000000  -0.000000   0.000024   0.000101
    17  H   -0.000000   0.000000   0.000000  -0.000000  -0.000000   0.000006
    18  H    0.000000  -0.000000   0.000000   0.000000  -0.000000  -0.000000
    19  H    0.000000   0.000000  -0.000000   0.000000   0.000000  -0.000000
    20  H    0.000000   0.000000   0.000000  -0.000000   0.000000   0.000000
    21  H    0.000000   0.000000   0.000000   0.000000  -0.000000   0.000000
    22  H    0.000000   0.000000   0.000000   0.000000   0.000000  -0.000000
    23  H    0.000000   0.000000   0.000000   0.000000   0.000000   0.000000
    24  H    0.000000   0.000000   0.000000   0.000000   0.000000   0.000000
              13         14         15         16         17         18
     1  H    0.000000   0.000000   0.000000   0.000000   0.000000   0.000000
     2  H    0.000000   0.000000   0.000000   0.000000   0.000000   0.000000
     3  H   -0.000000   0.000000   0.000000   0.000000   0.000000   0.000000
     4  H    0.000000  -0.000000   0.000000   0.000000   0.000000   0.000000
     5  H    0.000000   0.000000  -0.000000   0.000000   0.000000   0.000000
     6  H   -0.000000   0.000000   0.000000  -0.000000   0.000000   0.000000
     7  H   -0.000000  -0.000000   0.000000   0.000000  -0.000000   0.000000
     8  H    0.000006  -0.000000  -0.000000   0.000000   0.000000  -0.000000
     9  H    0.000101   0.000024  -0.000000  -0.000000   0.000000   0.000000
    10  H   -0.001992   0.000099   0.000006  -0.000000  -0.000000   0.000000
    11  H   -0.019612  -0.006122   0.000099   0.000024  -0.000000  -0.000000
    12  H    0.095779  -0.019612  -0.001992   0.000101   0.000006  -0.000000
    13  H    0.689778   0.260090  -0.019436  -0.006135   0.000097   0.000024
    14  H    0.260090   0.691513   0.095115  -0.019798  -0.001954   0.000104
    15  H   -0.019436   0.095115   0.687987   0.261367  -0.019233  -0.006181
    16  H   -0.006135  -0.019798   0.261367   0.693571   0.092904  -0.020040
    17  H    0.000097  -0.001954  -0.019233   0.092904   0.685693   0.264365
    18  H    0.000024   0.000104  -0.006181  -0.020040   0.264365   0.696572
    19  H   -0.000000   0.000006   0.000094  -0.001864  -0.018939   0.088310
    20  H   -0.000000  -0.000000   0.000024   0.000107  -0.006275  -0.020431
    21  H    0.000000  -0.000000  -0.000000   0.000005   0.000089  -0.001684
    22  H    0.000000   0.000000  -0.000000  -0.000000   0.000025   0.000113
    23  H   -0.000000   0.000000   0.000000  -0.000000  -0.000000   0.000004
    24  H    0.000000  -0.000000   0.000000   0.000000  -0.000000  -0.000000
              19         20         21         22         23         24
     1  H    0.000000   0.000000   0.000000   0.000000   0.000000   0.000000
     2  H    0.000000   0.000000   0.000000   0.000000   0.000000   0.000000
     3  H    0.000000   0.000000   0.000000   0.000000   0.000000   0.000000
     4  H    0.000000   0.000000   0.000000   0.000000   0.000000   0.000000
     5  H    0.000000   0.000000   0.000000   0.000000   0.000000   0.000000
     6  H    0.000000   0.000000   0.000000   0.000000   0.000000   0.000000
     7  H    0.000000   0.000000   0.000000   0.000000   0.000000   0.000000
     8  H    0.000000   0.000000   0.000000   0.000000   0.000000   0.000000
     9  H   -0.000000   0.000000   0.000000   0.000000   0.000000   0.000000
    10  H    0.000000  -0.000000   0.000000   0.000000   0.000000   0.000000
    11  H    0.000000   0.000000  -0.000000   0.000000   0.000000   0.000000
    12  H   -0.000000   0.000000   0.000000  -0.000000   0.000000   0.000000
    13  H   -0.000000  -0.000000   0.000000   0.000000  -0.000000   0.000000
    14  H    0.000006  -0.000000  -0.000000   0.000000   0.000000  -0.000000
    15  H    0.000094   0.000024  -0.000000  -0.000000   0.000000   0.000000
    16  H   -0.001864   0.000107   0.000005  -0.000000  -0.000000   0.000000
    17  H   -0.018939  -0.006275   0.000089   0.000025  -0.000000  -0.000000
    18  H    0.088310  -0.020431  -0.001684   0.000113   0.000004  -0.000000
    19  H    0.681925   0.270353  -0.018376  -0.006463   0.000077   0.000026
    20  H    0.270353   0.702129   0.079029  -0.021259  -0.001303   0.000130
    21  H   -0.018376   0.079029   0.673337   0.282926  -0.016775  -0.006754
    22  H   -0.006463  -0.021259   0.282926   0.716330   0.057768  -0.023916
    23  H    0.000077  -0.001303  -0.016775   0.057768   0.642507   0.307108
    24  H    0.000026   0.000130  -0.006754  -0.023916   0.307108   0.744854
 Mulliken charges:
               1
     1  H   -0.021448
     2  H    0.010614
     3  H   -0.005524
     4  H    0.008201
     5  H   -0.002503
     6  H    0.004850
     7  H   -0.001155
     8  H    0.003222
     9  H   -0.000242
    10  H    0.002149
    11  H    0.000535
    12  H    0.001301
    13  H    0.001301
    14  H    0.000535
    15  H    0.002149
    16  H   -0.000242
    17  H    0.003222
    18  H   -0.001155
    19  H    0.004850
    20  H   -0.002503
    21  H    0.008201
    22  H   -0.005524
    23  H    0.010614
    24  H   -0.021448
 Sum of Mulliken charges =   0.00000
 Mulliken charges with hydrogens summed into heavy atoms:
               1
 Electronic spatial extent (au):  <R**2>=          15498.7671
 Charge=              0.0000 electrons
 Dipole moment (field-independent basis, Debye):
    X=              0.0000    Y=              0.0000    Z=              0.0000  Tot=              0.0000
 Quadrupole moment (field-independent basis, Debye-Ang):
   XX=            -22.1009   YY=            -22.1009   ZZ=            -33.1145
   XY=              0.0000   XZ=              0.0000   YZ=              0.0000
 Traceless Quadrupole moment (field-independent basis, Debye-Ang):
   XX=              3.6712   YY=              3.6712   ZZ=             -7.3424
   XY=              0.0000   XZ=              0.0000   YZ=              0.0000
 Octapole moment (field-independent basis, Debye-Ang**2):
  XXX=              0.0000  YYY=              0.0000  ZZZ=          -1142.4509  XYY=              0.0000
  XXY=              0.0000  XXZ=           -254.1601  XZZ=              0.0000  YZZ=              0.0000
  YYZ=           -254.1601  XYZ=              0.0000
 Hexadecapole moment (field-independent basis, Debye-Ang**3):
 XXXX=            -18.2325 YYYY=            -18.2325 ZZZZ=         -34004.6194 XXXY=              0.0000
 XXXZ=              0.0000 YYYX=              0.0000 YYYZ=              0.0000 ZZZX=              0.0000
 ZZZY=              0.0000 XXYY=             -6.0775 XXZZ=          -3991.9948 YYZZ=          -3991.9948
 XXYZ=              0.0000 YYXZ=              0.0000 ZZXY=              0.0000
 N-N= 3.525537134722D+01 E-N=-9.773617654873D+01  KE= 1.464969256293D+01
 No NMR shielding tensors so no spin-rotation constants.
 Leave Link  601 at Mon Dec  6 11:56:01 2021, MaxMem=   104857600 cpu:               0.1 elap:               0.1
 (Enter /usr/local/g16reva03/legacy_cpu/g16/l9999.exe)
 1\1\GINC-USER1\SP\RHF\STO-3G\H24\AMKINY01\06-Dec-2021\0\\#P rhf nosymm
  output=matrix int=noraf scf=conven\\Hydrogen_Molecule\\0,1\H\H,1,1.\H
 ,2,1.,1,180.\H,3,1.,2,180.,1,0.,0\H,4,1.,3,180.,1,0.,0\H,5,1.,4,180.,1
 ,0.,0\H,6,1.,5,180.,1,0.,0\H,7,1.,6,180.,1,0.,0\H,8,1.,7,180.,1,0.,0\H
 ,9,1.,8,180.,1,0.,0\H,10,1.,9,180.,1,0.,0\H,11,1.,10,180.,1,0.,0\H,12,
 1.,11,180.,1,0.,0\H,13,1.,12,180.,1,0.,0\H,14,1.,13,180.,1,0.,0\H,15,1
 .,14,180.,1,0.,0\H,16,1.,15,180.,1,0.,0\H,17,1.,16,180.,1,0.,0\H,18,1.
 ,17,180.,1,0.,0\H,19,1.,18,180.,1,0.,0\H,20,1.,19,180.,1,0.,0\H,21,1.,
 20,180.,1,0.,0\H,22,1.,21,180.,1,0.,0\H,23,1.,22,180.,1,0.,0\\Version=
 EM64L-G16RevA.03\HF=-12.49807\RMSD=3.116e-09\Dipole=0.,0.,0.\Quadrupol
 e=2.7294571,2.7294571,-5.4589141,0.,0.,0.\PG=D*H [C*(H1H1H1H1H1H1H1H1H
 1H1H1H1.H1H1H1H1H1H1H1H1H1H1H1H1)]\\@


 WE TEND TO MEET ANY NEW SITUATION BY REORGANIZING. IT CAN BE A
 WONDERFUL METHOD FOR CREATING THE ILLUSION OF PROGRESS WHILE PRODUCING
 CONFUSION, INEFFICIENCY, AND DEMORALIZATION.
     -- PETRONIUS ARBITER, 210 B.C.

 Writing WrtUnf unformatted file "h24_1_Ang.mat"
 Gaussian matrix elements                                         Version   2 NLab=11 Len12L=8 Len4L=8
 Write SHELL TO ATOM MAP                   from file     0 offset           0 length                  24 to matrix element file.
 Write SHELL TYPES                         from file     0 offset           0 length                  24 to matrix element file.
 Write NUMBER OF PRIMITIVES PER SHELL      from file     0 offset           0 length                  24 to matrix element file.
 Write PRIMITIVE EXPONENTS                 from file     0 offset           0 length                  72 to matrix element file.
 Write CONTRACTION COEFFICIENTS            from file     0 offset           0 length                  72 to matrix element file.
 Write P(S=P) CONTRACTION COEFFICIENTS     from file     0 offset           0 length                  72 to matrix element file.
 Write COORDINATES OF EACH SHELL           from file     0 offset           0 length                  72 to matrix element file.
 Write GAUSSIAN SCALARS                    from file   501 offset           0 to matrix element file.
 Write INTEGER ISO                         from file     0 offset           0 length                  24 to matrix element file.
 Write INTEGER SPIN                        from file     0 offset           0 length                  24 to matrix element file.
 Write REAL ZEFFECTIVE                     from file     0 offset           0 length                  24 to matrix element file.
 Write REAL GFACTOR                        from file     0 offset           0 length                  24 to matrix element file.
 Write REAL ZNUCLEAR                       from file     0 offset           0 length                  24 to matrix element file.
 Write NUCLEAR GRADIENT                    from file 10584 offset           0 length                  72 to matrix element file.
 Array NUCLEAR FORCE CONSTANTS              on  file 10585 does not exist.
 Write ELECTRIC DIPOLE MOMENT              from file     0 offset           0 length                   3 to matrix element file.
 Write OVERLAP                             from file   514 offset           0 length                 300 to matrix element file.
 Write CORE HAMILTONIAN ALPHA              from file   515 offset           0 length                 300 to matrix element file.
 Write CORE HAMILTONIAN BETA               from file   515 offset         300 length                 300 to matrix element file.
 Write KINETIC ENERGY                      from file   516 offset           0 length                 300 to matrix element file.
 Write ORTHOGONAL BASIS                    from file   685 offset           0 length                 576 to matrix element file.
 Write DIPOLE INTEGRALS                    from file   518 offset           0 length                 900 to matrix element file.
 Write DIP VEL INTEGRALS                   from file   572 offset           0 length                 900 to matrix element file.
 Write R X DEL INTEGRALS                   from file   572 offset         900 length                 900 to matrix element file.
 Write ALPHA ORBITAL ENERGIES              from file     0 offset           0 length                  24 to matrix element file.
 Write ALPHA MO COEFFICIENTS               from file 10524 offset           0 length                 576 to matrix element file.
 Write ALPHA DENSITY MATRIX                from file 10528 offset           0 length                 300 to matrix element file.
 Write ALPHA SCF DENSITY MATRIX            from file 10528 offset           0 length                 300 to matrix element file.
 Write ALPHA FOCK MATRIX                   from file 10536 offset           0 length                 300 to matrix element file.
 Write REGULAR 2E INTEGRALS                to matrix element file, NR=1 ITotal=       12041.
 Job cpu time:       0 days  0 hours  0 minutes  4.3 seconds.
 Elapsed time:       0 days  0 hours  0 minutes  4.6 seconds.
 File lengths (MBytes):  RWF=     72 Int=      4 D2E=      0 Chk=      8 Scr=      8
 Normal termination of Gaussian 16 at Mon Dec  6 11:56:01 2021.
