 Entering Gaussian System, Link 0=g16
 Input=h2h2.com
 Output=h2h2.log
 Initial command:
 /usr/local/g16reva03/legacy_cpu/g16/l1.exe "/scratch/global/g16/Gau-6473.inp" -scrdir="/scratch/global/g16/"
 Entering Link 1 = /usr/local/g16reva03/legacy_cpu/g16/l1.exe PID=      6474.
  
 Copyright (c) 1988,1990,1992,1993,1995,1998,2003,2009,2016,
            Gaussian, Inc.  All Rights Reserved.
  
 This is part of the Gaussian(R) 16 program.  It is based on
 the Gaussian(R) 09 system (copyright 2009, Gaussian, Inc.),
 the Gaussian(R) 03 system (copyright 2003, Gaussian, Inc.),
 the Gaussian(R) 98 system (copyright 1998, Gaussian, Inc.),
 the Gaussian(R) 94 system (copyright 1995, Gaussian, Inc.),
 the Gaussian 92(TM) system (copyright 1992, Gaussian, Inc.),
 the Gaussian 90(TM) system (copyright 1990, Gaussian, Inc.),
 the Gaussian 88(TM) system (copyright 1988, Gaussian, Inc.),
 the Gaussian 86(TM) system (copyright 1986, Carnegie Mellon
 University), and the Gaussian 82(TM) system (copyright 1983,
 Carnegie Mellon University). Gaussian is a federally registered
 trademark of Gaussian, Inc.
  
 This software contains proprietary and confidential information,
 including trade secrets, belonging to Gaussian, Inc.
  
 This software is provided under written license and may be
 used, copied, transmitted, or stored only in accord with that
 written license.
  
 The following legend is applicable only to US Government
 contracts under FAR:
  
                    RESTRICTED RIGHTS LEGEND
  
 Use, reproduction and disclosure by the US Government is
 subject to restrictions as set forth in subparagraphs (a)
 and (c) of the Commercial Computer Software - Restricted
 Rights clause in FAR 52.227-19.
  
 Gaussian, Inc.
 340 Quinnipiac St., Bldg. 40, Wallingford CT 06492
  
  
 ---------------------------------------------------------------
 Warning -- This program may not be used in any manner that
 competes with the business of Gaussian, Inc. or will provide
 assistance to any competitor of Gaussian, Inc.  The licensee
 of this program is prohibited from giving any competitor of
 Gaussian, Inc. access to this program.  By using this program,
 the user acknowledges that Gaussian, Inc. is engaged in the
 business of creating and licensing software in the field of
 computational chemistry and represents and warrants to the
 licensee that it is not a competitor of Gaussian, Inc. and that
 it will not use this program in any manner prohibited above.
 ---------------------------------------------------------------
  

 Cite this work as:
 Gaussian 16, Revision A.03,
 M. J. Frisch, G. W. Trucks, H. B. Schlegel, G. E. Scuseria, 
 M. A. Robb, J. R. Cheeseman, G. Scalmani, V. Barone, 
 G. A. Petersson, H. Nakatsuji, X. Li, M. Caricato, A. V. Marenich, 
 J. Bloino, B. G. Janesko, R. Gomperts, B. Mennucci, H. P. Hratchian, 
 J. V. Ortiz, A. F. Izmaylov, J. L. Sonnenberg, D. Williams-Young, 
 F. Ding, F. Lipparini, F. Egidi, J. Goings, B. Peng, A. Petrone, 
 T. Henderson, D. Ranasinghe, V. G. Zakrzewski, J. Gao, N. Rega, 
 G. Zheng, W. Liang, M. Hada, M. Ehara, K. Toyota, R. Fukuda, 
 J. Hasegawa, M. Ishida, T. Nakajima, Y. Honda, O. Kitao, H. Nakai, 
 T. Vreven, K. Throssell, J. A. Montgomery, Jr., J. E. Peralta, 
 F. Ogliaro, M. J. Bearpark, J. J. Heyd, E. N. Brothers, K. N. Kudin, 
 V. N. Staroverov, T. A. Keith, R. Kobayashi, J. Normand, 
 K. Raghavachari, A. P. Rendell, J. C. Burant, S. S. Iyengar, 
 J. Tomasi, M. Cossi, J. M. Millam, M. Klene, C. Adamo, R. Cammi, 
 J. W. Ochterski, R. L. Martin, K. Morokuma, O. Farkas, 
 J. B. Foresman, and D. J. Fox, Gaussian, Inc., Wallingford CT, 2016.
 
 ******************************************
 Gaussian 16:  EM64L-G16RevA.03 25-Dec-2016
                 4-Dec-2021 
 ******************************************
 ------------------------------------------------
 #P rhf nosymm output=matrix int=noraf scf=conven
 ------------------------------------------------
 1/38=1,172=1/1;
 2/12=2,15=1,17=6,18=5,40=1/2;
 3/25=20,28=1,30=1,116=1/1,2,3,8,20;
 4//1;
 5/5=1,29=1/2;
 6/7=2,8=2,9=2,10=2,28=1/1;
 99/5=1,6=100000,9=1/99;
 Leave Link    1 at Sat Dec  4 02:18:07 2021, MaxMem=           0 cpu:               0.1 elap:               0.1
 (Enter /usr/local/g16reva03/legacy_cpu/g16/l101.exe)
 ----
 Li-H
 ----
 Symbolic Z-matrix:
 Charge =  0 Multiplicity = 1
 Li
 H                    1     1.53 
 
 ITRead=  0  0
 MicOpt= -1 -1
 NAtoms=      2 NQM=        2 NQMF=       0 NMMI=      0 NMMIF=      0
                NMic=       0 NMicF=      0.
                    Isotopes and Nuclear Properties:
 (Nuclear quadrupole moments (NQMom) in fm**2, nuclear magnetic moments (NMagM)
  in nuclear magnetons)

  Atom         1           2
 IAtWgt=           7           1
 AtmWgt=   7.0160045   1.0078250
 NucSpn=           3           1
 AtZEff=  -0.0000000  -0.0000000
 NQMom=   -4.0100000   0.0000000
 NMagM=    3.2564240   2.7928460
 AtZNuc=   3.0000000   1.0000000
 Leave Link  101 at Sat Dec  4 02:18:07 2021, MaxMem=   104857600 cpu:               0.2 elap:               0.2
 (Enter /usr/local/g16reva03/legacy_cpu/g16/l202.exe)
                          Input orientation:                          
 ---------------------------------------------------------------------
 Center     Atomic      Atomic             Coordinates (Angstroms)
 Number     Number       Type             X           Y           Z
 ---------------------------------------------------------------------
      1          3           0        0.000000    0.000000    0.000000
      2          1           0        0.000000    0.000000    1.530000
 ---------------------------------------------------------------------
 Symmetry turned off by external request.
 Stoichiometry    HLi
 Framework group  C*V[C*(HLi)]
 Deg. of freedom     1
 Full point group                 C*V     NOp   4
 Rotational constants (GHZ):           0.0000000         244.9858662         244.9858662
 Leave Link  202 at Sat Dec  4 02:18:07 2021, MaxMem=   104857600 cpu:               0.1 elap:               0.0
 (Enter /usr/local/g16reva03/legacy_cpu/g16/l301.exe)
 Standard basis: STO-3G (5D, 7F)
 Ernie: Thresh=  0.10000D-02 Tol=  0.10000D-05 Strict=F.
     6 basis functions,    18 primitive gaussians,     6 cartesian basis functions
     2 alpha electrons        2 beta electrons
       nuclear repulsion energy         1.0376023744 Hartrees.
 IExCor=    0 DFT=F Ex=HF Corr=None ExCW=0 ScaHFX=  1.000000
 ScaDFX=  1.000000  1.000000  1.000000  1.000000 ScalE2=  1.000000  1.000000
 IRadAn=      5 IRanWt=     -1 IRanGd=            0 ICorTp=0 IEmpDi=  4
 NAtoms=    2 NActive=    2 NUniq=    2 SFac= 1.00D+00 NAtFMM=   60 NAOKFM=F Big=F
 Integral buffers will be    131072 words long.
 Regular integral format.
 Two-electron integral symmetry is turned off.
 Leave Link  301 at Sat Dec  4 02:18:07 2021, MaxMem=   104857600 cpu:               0.1 elap:               0.1
 (Enter /usr/local/g16reva03/legacy_cpu/g16/l302.exe)
 NPDir=0 NMtPBC=     1 NCelOv=     1 NCel=       1 NClECP=     1 NCelD=      1
         NCelK=      1 NCelE2=     1 NClLst=     1 CellRange=     0.0.
 One-electron integrals computed using PRISM.
 NBasis=     6 RedAO= T EigKep=  3.28D-01  NBF=     6
 NBsUse=     6 1.00D-06 EigRej= -1.00D+00 NBFU=     6
 Leave Link  302 at Sat Dec  4 02:18:07 2021, MaxMem=   104857600 cpu:               0.2 elap:               0.2
 (Enter /usr/local/g16reva03/legacy_cpu/g16/l303.exe)
 DipDrv:  MaxL=1.
 Leave Link  303 at Sat Dec  4 02:18:08 2021, MaxMem=   104857600 cpu:               0.1 elap:               0.1
 (Enter /usr/local/g16reva03/legacy_cpu/g16/l308.exe)
 Leave Link  308 at Sat Dec  4 02:18:08 2021, MaxMem=   104857600 cpu:               0.1 elap:               0.1
 (Enter /usr/local/g16reva03/legacy_cpu/g16/l320.exe)
 Enter DskPsm, NBasis=   6 NBas6D=   6 NShell=   3 IDoSP=4.
 Out2e will use a cutoff of  1.00D-10
 FoFCou: FMM=F IPFlag=           0 FMFlag=           0 FMFlg1=           0
         NFxFlg=           0 DoJE=F BraDBF=F KetDBF=F FulRan=T
         wScrn=  0.000000 ICntrl=       600 IOpCl=  9 I1Cent=           0 NGrid=           0
         NMat0=    0 NMatS0=      0 NMatT0=    0 NMatD0=    0 NMtDS0=    0 NMtDT0=    0
 Symmetry not used in FoFCou.
           83 integrals produced for a total of           83.
 Leave Link  320 at Sat Dec  4 02:18:08 2021, MaxMem=   104857600 cpu:               0.2 elap:               0.2
 (Enter /usr/local/g16reva03/legacy_cpu/g16/l401.exe)
 ExpMin= 4.81D-02 ExpMax= 1.61D+01 ExpMxC= 1.61D+01 IAcc=3 IRadAn=         5 AccDes= 0.00D+00
 Harris functional with IExCor=  205 and IRadAn=       5 diagonalized for initial guess.
 HarFok:  IExCor=  205 AccDes= 0.00D+00 IRadAn=         5 IDoV= 1 UseB2=F ITyADJ=14
 ICtDFT=  3500011 ScaDFX=  1.000000  1.000000  1.000000  1.000000
 FoFCou: FMM=F IPFlag=           0 FMFlag=      100000 FMFlg1=           0
         NFxFlg=           0 DoJE=T BraDBF=F KetDBF=T FulRan=T
         wScrn=  0.000000 ICntrl=       500 IOpCl=  0 I1Cent=   200000004 NGrid=           0
         NMat0=    1 NMatS0=      1 NMatT0=    0 NMatD0=    1 NMtDS0=    0 NMtDT0=    0
 Symmetry not used in FoFCou.
 Harris En= -7.91657497475585    
 JPrj=0 DoOrth=F DoCkMO=F.
 Leave Link  401 at Sat Dec  4 02:18:08 2021, MaxMem=   104857600 cpu:               0.3 elap:               0.3
 (Enter /usr/local/g16reva03/legacy_cpu/g16/l502.exe)
 Two-electron integral symmetry not used.
 Closed shell SCF:
 Using DIIS extrapolation, IDIIS=  1040.
 Unsorted integral processing.
 NGot=   104857600 LenX=   104594136 LenY=   104593254
 Requested convergence on RMS density matrix=1.00D-08 within 128 cycles.
 Requested convergence on MAX density matrix=1.00D-06.
 Requested convergence on             energy=1.00D-06.
 No special actions if energy rises.

 Cycle   1  Pass 1  IDiag  1:
 E= -7.84026439591267    
 DIIS: error= 3.55D-02 at cycle   1 NSaved=   1.
 NSaved= 1 IEnMin= 1 EnMin= -7.84026439591267     IErMin= 1 ErrMin= 3.55D-02
 ErrMax= 3.55D-02  0.00D+00 EMaxC= 1.00D-01 BMatC= 9.23D-03 BMatP= 9.23D-03
 IDIUse=3 WtCom= 6.45D-01 WtEn= 3.55D-01
 Coeff-Com:  0.100D+01
 Coeff-En:   0.100D+01
 Coeff:      0.100D+01
 Gap=     0.316 Goal=   None    Shift=    0.000
 GapD=    0.316 DampG=1.000 DampE=0.500 DampFc=0.5000 IDamp=-1.
 Damping current iteration by 5.00D-01
 RMSDP=3.70D-02 MaxDP=1.56D-01              OVMax= 6.15D-02

 Cycle   2  Pass 1  IDiag  1:
 E= -7.85100271607977     Delta-E=       -0.010738320167 Rises=F Damp=T
 DIIS: error= 1.92D-02 at cycle   2 NSaved=   2.
 NSaved= 2 IEnMin= 2 EnMin= -7.85100271607977     IErMin= 2 ErrMin= 1.92D-02
 ErrMax= 1.92D-02  0.00D+00 EMaxC= 1.00D-01 BMatC= 2.74D-03 BMatP= 9.23D-03
 IDIUse=3 WtCom= 8.08D-01 WtEn= 1.92D-01
 Coeff-Com: -0.118D+01 0.218D+01
 Coeff-En:   0.000D+00 0.100D+01
 Coeff:     -0.956D+00 0.196D+01
 Gap=     0.363 Goal=   None    Shift=    0.000
 RMSDP=2.22D-02 MaxDP=8.95D-02 DE=-1.07D-02 OVMax= 1.63D-02

 Cycle   3  Pass 1  IDiag  1:
 E= -7.86320700724576     Delta-E=       -0.012204291166 Rises=F Damp=F
 DIIS: error= 9.86D-04 at cycle   3 NSaved=   3.
 NSaved= 3 IEnMin= 3 EnMin= -7.86320700724576     IErMin= 3 ErrMin= 9.86D-04
 ErrMax= 9.86D-04  0.00D+00 EMaxC= 1.00D-01 BMatC= 9.15D-06 BMatP= 2.74D-03
 IDIUse=3 WtCom= 9.90D-01 WtEn= 9.86D-03
 Coeff-Com:  0.106D+01-0.198D+01 0.192D+01
 Coeff-En:   0.000D+00 0.000D+00 0.100D+01
 Coeff:      0.105D+01-0.196D+01 0.191D+01
 Gap=     0.369 Goal=   None    Shift=    0.000
 RMSDP=2.78D-03 MaxDP=9.50D-03 DE=-1.22D-02 OVMax= 1.39D-02

 Cycle   4  Pass 1  IDiag  1:
 E= -7.86330412747582     Delta-E=       -0.000097120230 Rises=F Damp=F
 DIIS: error= 1.84D-04 at cycle   4 NSaved=   4.
 NSaved= 4 IEnMin= 4 EnMin= -7.86330412747582     IErMin= 4 ErrMin= 1.84D-04
 ErrMax= 1.84D-04  0.00D+00 EMaxC= 1.00D-01 BMatC= 2.80D-07 BMatP= 9.15D-06
 IDIUse=3 WtCom= 9.98D-01 WtEn= 1.84D-03
 Coeff-Com: -0.252D-01 0.521D-01-0.270D+00 0.124D+01
 Coeff-En:   0.000D+00 0.000D+00 0.000D+00 0.100D+01
 Coeff:     -0.251D-01 0.520D-01-0.269D+00 0.124D+01
 Gap=     0.370 Goal=   None    Shift=    0.000
 RMSDP=5.80D-04 MaxDP=1.81D-03 DE=-9.71D-05 OVMax= 2.89D-03

 Cycle   5  Pass 1  IDiag  1:
 E= -7.86330713103704     Delta-E=       -0.000003003561 Rises=F Damp=F
 DIIS: error= 4.51D-06 at cycle   5 NSaved=   5.
 NSaved= 5 IEnMin= 5 EnMin= -7.86330713103704     IErMin= 5 ErrMin= 4.51D-06
 ErrMax= 4.51D-06  0.00D+00 EMaxC= 1.00D-01 BMatC= 1.05D-10 BMatP= 2.80D-07
 IDIUse=1 WtCom= 1.00D+00 WtEn= 0.00D+00
 Coeff-Com: -0.742D-03 0.106D-02 0.194D-01-0.106D+00 0.109D+01
 Coeff:     -0.742D-03 0.106D-02 0.194D-01-0.106D+00 0.109D+01
 Gap=     0.370 Goal=   None    Shift=    0.000
 RMSDP=5.12D-06 MaxDP=1.90D-05 DE=-3.00D-06 OVMax= 2.20D-05

 Cycle   6  Pass 1  IDiag  1:
 E= -7.86330713132569     Delta-E=       -0.000000000289 Rises=F Damp=F
 DIIS: error= 2.85D-07 at cycle   6 NSaved=   6.
 NSaved= 6 IEnMin= 6 EnMin= -7.86330713132569     IErMin= 6 ErrMin= 2.85D-07
 ErrMax= 2.85D-07  0.00D+00 EMaxC= 1.00D-01 BMatC= 7.14D-13 BMatP= 1.05D-10
 IDIUse=1 WtCom= 1.00D+00 WtEn= 0.00D+00
 Coeff-Com:  0.103D-03-0.203D-03-0.497D-03 0.353D-02-0.926D-01 0.109D+01
 Coeff:      0.103D-03-0.203D-03-0.497D-03 0.353D-02-0.926D-01 0.109D+01
 Gap=     0.370 Goal=   None    Shift=    0.000
 RMSDP=3.60D-07 MaxDP=1.32D-06 DE=-2.89D-10 OVMax= 3.58D-07

 Cycle   7  Pass 1  IDiag  1:
 E= -7.86330713132725     Delta-E=       -0.000000000002 Rises=F Damp=F
 DIIS: error= 1.58D-08 at cycle   7 NSaved=   7.
 NSaved= 7 IEnMin= 7 EnMin= -7.86330713132725     IErMin= 7 ErrMin= 1.58D-08
 ErrMax= 1.58D-08  0.00D+00 EMaxC= 1.00D-01 BMatC= 2.04D-15 BMatP= 7.14D-13
 IDIUse=1 WtCom= 1.00D+00 WtEn= 0.00D+00
 Coeff-Com: -0.140D-05 0.293D-05-0.618D-04 0.275D-03-0.450D-02 0.711D-01
 Coeff-Com:  0.933D+00
 Coeff:     -0.140D-05 0.293D-05-0.618D-04 0.275D-03-0.450D-02 0.711D-01
 Coeff:      0.933D+00
 Gap=     0.370 Goal=   None    Shift=    0.000
 RMSDP=2.86D-08 MaxDP=8.80D-08 DE=-1.56D-12 OVMax= 1.14D-07

 Cycle   8  Pass 1  IDiag  1:
 E= -7.86330713132726     Delta-E=       -0.000000000000 Rises=F Damp=F
 DIIS: error= 9.02D-10 at cycle   8 NSaved=   8.
 NSaved= 8 IEnMin= 8 EnMin= -7.86330713132726     IErMin= 8 ErrMin= 9.02D-10
 ErrMax= 9.02D-10  0.00D+00 EMaxC= 1.00D-01 BMatC= 7.09D-18 BMatP= 2.04D-15
 IDIUse=1 WtCom= 1.00D+00 WtEn= 0.00D+00
 Large coefficients: NSaved=  8 BigCof=    0.00 CofMax=   10.00 Det= 6.16D-30
 Inversion failed.  Reducing to  7 matrices.
 Coeff-Com:  0.172D-08-0.415D-06 0.110D-04-0.517D-04-0.290D-02-0.151D+00
 Coeff-Com:  0.115D+01
 Coeff:      0.172D-08-0.415D-06 0.110D-04-0.517D-04-0.290D-02-0.151D+00
 Coeff:      0.115D+01
 Gap=     0.370 Goal=   None    Shift=    0.000
 RMSDP=2.02D-09 MaxDP=7.98D-09 DE=-8.88D-15 OVMax= 9.43D-09

 SCF Done:  E(RHF) =  -7.86330713133     A.U. after    8 cycles
            NFock=  8  Conv=0.20D-08     -V/T= 1.9863
 KE= 7.972467530123D+00 PE=-2.049738713591D+01 EE= 3.624010100104D+00
 Leave Link  502 at Sat Dec  4 02:18:08 2021, MaxMem=   104857600 cpu:               0.1 elap:               0.1
 (Enter /usr/local/g16reva03/legacy_cpu/g16/l601.exe)
 Copying SCF densities to generalized density rwf, IOpCl= 0 IROHF=0.

 **********************************************************************

            Population analysis using the SCF density.

 **********************************************************************

 Alpha  occ. eigenvalues --   -2.34732  -0.29113
 Alpha virt. eigenvalues --    0.07879   0.16384   0.16384   0.56664
          Condensed to atoms (all electrons):
               1          2
     1  Li   2.628415   0.388339
     2  H    0.388339   0.594907
 Mulliken charges:
               1
     1  Li  -0.016754
     2  H    0.016754
 Sum of Mulliken charges =   0.00000
 Mulliken charges with hydrogens summed into heavy atoms:
               1
     1  Li   0.000000
 Electronic spatial extent (au):  <R**2>=             22.6936
 Charge=              0.0000 electrons
 Dipole moment (field-independent basis, Debye):
    X=              0.0000    Y=              0.0000    Z=             -4.8428  Tot=              4.8428
 Quadrupole moment (field-independent basis, Debye-Ang):
   XX=             -5.2448   YY=             -5.2448   ZZ=             -8.7902
   XY=             -0.0000   XZ=              0.0000   YZ=              0.0000
 Traceless Quadrupole moment (field-independent basis, Debye-Ang):
   XX=              1.1818   YY=              1.1818   ZZ=             -2.3635
   XY=             -0.0000   XZ=              0.0000   YZ=              0.0000
 Octapole moment (field-independent basis, Debye-Ang**2):
  XXX=              0.0000  YYY=              0.0000  ZZZ=            -17.5968  XYY=              0.0000
  XXY=              0.0000  XXZ=             -5.3485  XZZ=              0.0000  YZZ=              0.0000
  YYZ=             -5.3485  XYZ=              0.0000
 Hexadecapole moment (field-independent basis, Debye-Ang**3):
 XXXX=            -12.3027 YYYY=            -12.3027 ZZZZ=            -43.0574 XXXY=             -0.0000
 XXXZ=              0.0000 YYYX=             -0.0000 YYYZ=              0.0000 ZZZX=              0.0000
 ZZZY=              0.0000 XXYY=             -4.1009 XXZZ=             -9.1454 YYZZ=             -9.1454
 XXYZ=              0.0000 YYXZ=              0.0000 ZZXY=             -0.0000
 N-N= 1.037602374353D+00 E-N=-2.049738713783D+01  KE= 7.972467530123D+00
 No NMR shielding tensors so no spin-rotation constants.
 Leave Link  601 at Sat Dec  4 02:18:09 2021, MaxMem=   104857600 cpu:               0.1 elap:               0.1
 (Enter /usr/local/g16reva03/legacy_cpu/g16/l9999.exe)
 1\1\GINC-USER1\SP\RHF\STO-3G\H1Li1\AMKINY01\04-Dec-2021\0\\#P rhf nosy
 mm output=matrix int=noraf scf=conven\\Li-H\\0,1\Li\H,1,1.53\\Version=
 EM64L-G16RevA.03\HF=-7.8633071\RMSD=2.019e-09\Dipole=0.,0.,-1.9053165\
 Quadrupole=0.8786157,0.8786157,-1.7572315,0.,0.,0.\PG=C*V [C*(H1Li1)]\
 \@


 MAN IS THE MEASURE OF ALL THINGS.
  -- PROTAGORAS (5TH CENTURY B.C.)

 Writing WrtUnf unformatted file "lih_1_Ang.mat"
 Gaussian matrix elements                                         Version   2 NLab=11 Len12L=8 Len4L=8
 Write SHELL TO ATOM MAP                   from file     0 offset           0 length                   3 to matrix element file.
 Write SHELL TYPES                         from file     0 offset           0 length                   3 to matrix element file.
 Write NUMBER OF PRIMITIVES PER SHELL      from file     0 offset           0 length                   3 to matrix element file.
 Write PRIMITIVE EXPONENTS                 from file     0 offset           0 length                   9 to matrix element file.
 Write CONTRACTION COEFFICIENTS            from file     0 offset           0 length                   9 to matrix element file.
 Write P(S=P) CONTRACTION COEFFICIENTS     from file     0 offset           0 length                   9 to matrix element file.
 Write COORDINATES OF EACH SHELL           from file     0 offset           0 length                   9 to matrix element file.
 Write BONDS PER ATOM                      from file     0 offset           0 length                   2 to matrix element file.
 Write BONDED ATOMS                        from file     0 offset           0 length                   2 to matrix element file.
 Write BOND TYPES                          from file     0 offset           0 length                   2 to matrix element file.
 Write GAUSSIAN SCALARS                    from file   501 offset           0 to matrix element file.
 Write INTEGER ISO                         from file     0 offset           0 length                   2 to matrix element file.
 Write INTEGER SPIN                        from file     0 offset           0 length                   2 to matrix element file.
 Write REAL ZEFFECTIVE                     from file     0 offset           0 length                   2 to matrix element file.
 Write REAL QUADRUPOLEMOMENT               from file     0 offset           0 length                   2 to matrix element file.
 Write REAL GFACTOR                        from file     0 offset           0 length                   2 to matrix element file.
 Write REAL ZNUCLEAR                       from file     0 offset           0 length                   2 to matrix element file.
 Write NUCLEAR GRADIENT                    from file 10584 offset           0 length                   6 to matrix element file.
 Array NUCLEAR FORCE CONSTANTS              on  file 10585 does not exist.
 Write ELECTRIC DIPOLE MOMENT              from file     0 offset           0 length                   3 to matrix element file.
 Write OVERLAP                             from file   514 offset           0 length                  21 to matrix element file.
 Write CORE HAMILTONIAN ALPHA              from file   515 offset           0 length                  21 to matrix element file.
 Write CORE HAMILTONIAN BETA               from file   515 offset          21 length                  21 to matrix element file.
 Write KINETIC ENERGY                      from file   516 offset           0 length                  21 to matrix element file.
 Write ORTHOGONAL BASIS                    from file   685 offset           0 length                  36 to matrix element file.
 Write DIPOLE INTEGRALS                    from file   518 offset           0 length                  63 to matrix element file.
 Write DIP VEL INTEGRALS                   from file   572 offset           0 length                  63 to matrix element file.
 Write R X DEL INTEGRALS                   from file   572 offset          63 length                  63 to matrix element file.
 Write ALPHA ORBITAL ENERGIES              from file     0 offset           0 length                   6 to matrix element file.
 Write ALPHA MO COEFFICIENTS               from file 10524 offset           0 length                  36 to matrix element file.
 Write ALPHA DENSITY MATRIX                from file 10528 offset           0 length                  21 to matrix element file.
 Write ALPHA SCF DENSITY MATRIX            from file 10528 offset           0 length                  21 to matrix element file.
 Write ALPHA FOCK MATRIX                   from file 10536 offset           0 length                  21 to matrix element file.
 Write REGULAR 2E INTEGRALS                to matrix element file, NR=1 ITotal=          83.
 Job cpu time:       0 days  0 hours  0 minutes  1.8 seconds.
 Elapsed time:       0 days  0 hours  0 minutes  1.8 seconds.
 File lengths (MBytes):  RWF=     72 Int=      4 D2E=      0 Chk=      8 Scr=      8
 Normal termination of Gaussian 16 at Sat Dec  4 02:18:09 2021.
