 Entering Gaussian System, Link 0=g16
 Input=h48.com
 Output=h48.log
 Initial command:
 /usr/local/g16reva03/legacy_cpu/g16/l1.exe "/scratch/global/g16/Gau-18248.inp" -scrdir="/scratch/global/g16/"
 Entering Link 1 = /usr/local/g16reva03/legacy_cpu/g16/l1.exe PID=     18249.
  
 Copyright (c) 1988,1990,1992,1993,1995,1998,2003,2009,2016,
            Gaussian, Inc.  All Rights Reserved.
  
 This is part of the Gaussian(R) 16 program.  It is based on
 the Gaussian(R) 09 system (copyright 2009, Gaussian, Inc.),
 the Gaussian(R) 03 system (copyright 2003, Gaussian, Inc.),
 the Gaussian(R) 98 system (copyright 1998, Gaussian, Inc.),
 the Gaussian(R) 94 system (copyright 1995, Gaussian, Inc.),
 the Gaussian 92(TM) system (copyright 1992, Gaussian, Inc.),
 the Gaussian 90(TM) system (copyright 1990, Gaussian, Inc.),
 the Gaussian 88(TM) system (copyright 1988, Gaussian, Inc.),
 the Gaussian 86(TM) system (copyright 1986, Carnegie Mellon
 University), and the Gaussian 82(TM) system (copyright 1983,
 Carnegie Mellon University). Gaussian is a federally registered
 trademark of Gaussian, Inc.
  
 This software contains proprietary and confidential information,
 including trade secrets, belonging to Gaussian, Inc.
  
 This software is provided under written license and may be
 used, copied, transmitted, or stored only in accord with that
 written license.
  
 The following legend is applicable only to US Government
 contracts under FAR:
  
                    RESTRICTED RIGHTS LEGEND
  
 Use, reproduction and disclosure by the US Government is
 subject to restrictions as set forth in subparagraphs (a)
 and (c) of the Commercial Computer Software - Restricted
 Rights clause in FAR 52.227-19.
  
 Gaussian, Inc.
 340 Quinnipiac St., Bldg. 40, Wallingford CT 06492
  
  
 ---------------------------------------------------------------
 Warning -- This program may not be used in any manner that
 competes with the business of Gaussian, Inc. or will provide
 assistance to any competitor of Gaussian, Inc.  The licensee
 of this program is prohibited from giving any competitor of
 Gaussian, Inc. access to this program.  By using this program,
 the user acknowledges that Gaussian, Inc. is engaged in the
 business of creating and licensing software in the field of
 computational chemistry and represents and warrants to the
 licensee that it is not a competitor of Gaussian, Inc. and that
 it will not use this program in any manner prohibited above.
 ---------------------------------------------------------------
  

 Cite this work as:
 Gaussian 16, Revision A.03,
 M. J. Frisch, G. W. Trucks, H. B. Schlegel, G. E. Scuseria, 
 M. A. Robb, J. R. Cheeseman, G. Scalmani, V. Barone, 
 G. A. Petersson, H. Nakatsuji, X. Li, M. Caricato, A. V. Marenich, 
 J. Bloino, B. G. Janesko, R. Gomperts, B. Mennucci, H. P. Hratchian, 
 J. V. Ortiz, A. F. Izmaylov, J. L. Sonnenberg, D. Williams-Young, 
 F. Ding, F. Lipparini, F. Egidi, J. Goings, B. Peng, A. Petrone, 
 T. Henderson, D. Ranasinghe, V. G. Zakrzewski, J. Gao, N. Rega, 
 G. Zheng, W. Liang, M. Hada, M. Ehara, K. Toyota, R. Fukuda, 
 J. Hasegawa, M. Ishida, T. Nakajima, Y. Honda, O. Kitao, H. Nakai, 
 T. Vreven, K. Throssell, J. A. Montgomery, Jr., J. E. Peralta, 
 F. Ogliaro, M. J. Bearpark, J. J. Heyd, E. N. Brothers, K. N. Kudin, 
 V. N. Staroverov, T. A. Keith, R. Kobayashi, J. Normand, 
 K. Raghavachari, A. P. Rendell, J. C. Burant, S. S. Iyengar, 
 J. Tomasi, M. Cossi, J. M. Millam, M. Klene, C. Adamo, R. Cammi, 
 J. W. Ochterski, R. L. Martin, K. Morokuma, O. Farkas, 
 J. B. Foresman, and D. J. Fox, Gaussian, Inc., Wallingford CT, 2016.
 
 ******************************************
 Gaussian 16:  EM64L-G16RevA.03 25-Dec-2016
                 6-Dec-2021 
 ******************************************
 ------------------------------------------------
 #P rhf nosymm output=matrix int=noraf scf=conven
 ------------------------------------------------
 1/38=1,172=1/1;
 2/12=2,15=1,17=6,18=5,40=1/2;
 3/25=20,28=1,30=1,116=1/1,2,3,8,20;
 4//1;
 5/5=1,29=1/2;
 6/7=2,8=2,9=2,10=2,28=1/1;
 99/5=1,6=100000,9=1/99;
 Leave Link    1 at Mon Dec  6 11:57:48 2021, MaxMem=           0 cpu:               0.1 elap:               0.1
 (Enter /usr/local/g16reva03/legacy_cpu/g16/l101.exe)
 -----------------
 Hydrogen_Molecule
 -----------------
 Symbolic Z-matrix:
 Charge =  0 Multiplicity = 1
 H
 H                    1     1. 
 H                    2     1.       1     180. 
 H                    3     1.       2     180.     1     0.       0
 H                    4     1.       3     180.     1     0.       0
 H                    5     1.       4     180.     1     0.       0
 H                    6     1.       5     180.     1     0.       0
 H                    7     1.       6     180.     1     0.       0
 H                    8     1.       7     180.     1     0.       0
 H                    9     1.       8     180.     1     0.       0
 H                    10    1.       9     180.     1     0.       0
 H                    11    1.       10    180.     1     0.       0
 H                    12    1.       11    180.     1     0.       0
 H                    13    1.       12    180.     1     0.       0
 H                    14    1.       13    180.     1     0.       0
 H                    15    1.       14    180.     1     0.       0
 H                    16    1.       15    180.     1     0.       0
 H                    17    1.       16    180.     1     0.       0
 H                    18    1.       17    180.     1     0.       0
 H                    19    1.       18    180.     1     0.       0
 H                    20    1.       19    180.     1     0.       0
 H                    21    1.       20    180.     1     0.       0
 H                    22    1.       21    180.     1     0.       0
 H                    23    1.       22    180.     1     0.       0
 H                    24    1.       23    180.     1     0.       0
 H                    25    1.       24    180.     1     0.       0
 H                    26    1.       25    180.     1     0.       0
 H                    27    1.       26    180.     1     0.       0
 H                    28    1.       27    180.     1     0.       0
 H                    29    1.       28    180.     1     0.       0
 H                    30    1.       29    180.     1     0.       0
 H                    31    1.       30    180.     1     0.       0
 H                    32    1.       31    180.     1     0.       0
 H                    33    1.       32    180.     1     0.       0
 H                    34    1.       33    180.     1     0.       0
 H                    35    1.       34    180.     1     0.       0
 H                    36    1.       35    180.     1     0.       0
 H                    37    1.       36    180.     1     0.       0
 H                    38    1.       37    180.     1     0.       0
 H                    39    1.       38    180.     1     0.       0
 H                    40    1.       39    180.     1     0.       0
 H                    41    1.       40    180.     1     0.       0
 H                    42    1.       41    180.     1     0.       0
 H                    43    1.       42    180.     1     0.       0
 H                    44    1.       43    180.     1     0.       0
 H                    45    1.       44    180.     1     0.       0
 H                    46    1.       45    180.     1     0.       0
 H                    47    1.       46    180.     1     0.       0
 
 ITRead=  0  0  0  0  0  0  0  0  0  0  0  0  0  0  0  0  0  0  0  0
 ITRead=  0  0  0  0  0  0  0  0  0  0  0  0  0  0  0  0  0  0  0  0
 ITRead=  0  0  0  0  0  0  0  0
 MicOpt= -1 -1 -1 -1 -1 -1 -1 -1 -1 -1 -1 -1 -1 -1 -1 -1 -1 -1 -1 -1
 MicOpt= -1 -1 -1 -1 -1 -1 -1 -1 -1 -1 -1 -1 -1 -1 -1 -1 -1 -1 -1 -1
 MicOpt= -1 -1 -1 -1 -1 -1 -1 -1
 NAtoms=     48 NQM=       48 NQMF=       0 NMMI=      0 NMMIF=      0
                NMic=       0 NMicF=      0.
                    Isotopes and Nuclear Properties:
 (Nuclear quadrupole moments (NQMom) in fm**2, nuclear magnetic moments (NMagM)
  in nuclear magnetons)

  Atom         1           2           3           4           5           6           7           8           9          10
 IAtWgt=           1           1           1           1           1           1           1           1           1           1
 AtmWgt=   1.0078250   1.0078250   1.0078250   1.0078250   1.0078250   1.0078250   1.0078250   1.0078250   1.0078250   1.0078250
 NucSpn=           1           1           1           1           1           1           1           1           1           1
 AtZEff=  -0.0000000  -0.0000000  -0.0000000  -0.0000000  -0.0000000  -0.0000000  -0.0000000  -0.0000000  -0.0000000  -0.0000000
 NQMom=    0.0000000   0.0000000   0.0000000   0.0000000   0.0000000   0.0000000   0.0000000   0.0000000   0.0000000   0.0000000
 NMagM=    2.7928460   2.7928460   2.7928460   2.7928460   2.7928460   2.7928460   2.7928460   2.7928460   2.7928460   2.7928460
 AtZNuc=   1.0000000   1.0000000   1.0000000   1.0000000   1.0000000   1.0000000   1.0000000   1.0000000   1.0000000   1.0000000

  Atom        11          12          13          14          15          16          17          18          19          20
 IAtWgt=           1           1           1           1           1           1           1           1           1           1
 AtmWgt=   1.0078250   1.0078250   1.0078250   1.0078250   1.0078250   1.0078250   1.0078250   1.0078250   1.0078250   1.0078250
 NucSpn=           1           1           1           1           1           1           1           1           1           1
 AtZEff=  -0.0000000  -0.0000000  -0.0000000  -0.0000000  -0.0000000  -0.0000000  -0.0000000  -0.0000000  -0.0000000  -0.0000000
 NQMom=    0.0000000   0.0000000   0.0000000   0.0000000   0.0000000   0.0000000   0.0000000   0.0000000   0.0000000   0.0000000
 NMagM=    2.7928460   2.7928460   2.7928460   2.7928460   2.7928460   2.7928460   2.7928460   2.7928460   2.7928460   2.7928460
 AtZNuc=   1.0000000   1.0000000   1.0000000   1.0000000   1.0000000   1.0000000   1.0000000   1.0000000   1.0000000   1.0000000

  Atom        21          22          23          24          25          26          27          28          29          30
 IAtWgt=           1           1           1           1           1           1           1           1           1           1
 AtmWgt=   1.0078250   1.0078250   1.0078250   1.0078250   1.0078250   1.0078250   1.0078250   1.0078250   1.0078250   1.0078250
 NucSpn=           1           1           1           1           1           1           1           1           1           1
 AtZEff=  -0.0000000  -0.0000000  -0.0000000  -0.0000000  -0.0000000  -0.0000000  -0.0000000  -0.0000000  -0.0000000  -0.0000000
 NQMom=    0.0000000   0.0000000   0.0000000   0.0000000   0.0000000   0.0000000   0.0000000   0.0000000   0.0000000   0.0000000
 NMagM=    2.7928460   2.7928460   2.7928460   2.7928460   2.7928460   2.7928460   2.7928460   2.7928460   2.7928460   2.7928460
 AtZNuc=   1.0000000   1.0000000   1.0000000   1.0000000   1.0000000   1.0000000   1.0000000   1.0000000   1.0000000   1.0000000

  Atom        31          32          33          34          35          36          37          38          39          40
 IAtWgt=           1           1           1           1           1           1           1           1           1           1
 AtmWgt=   1.0078250   1.0078250   1.0078250   1.0078250   1.0078250   1.0078250   1.0078250   1.0078250   1.0078250   1.0078250
 NucSpn=           1           1           1           1           1           1           1           1           1           1
 AtZEff=  -0.0000000  -0.0000000  -0.0000000  -0.0000000  -0.0000000  -0.0000000  -0.0000000  -0.0000000  -0.0000000  -0.0000000
 NQMom=    0.0000000   0.0000000   0.0000000   0.0000000   0.0000000   0.0000000   0.0000000   0.0000000   0.0000000   0.0000000
 NMagM=    2.7928460   2.7928460   2.7928460   2.7928460   2.7928460   2.7928460   2.7928460   2.7928460   2.7928460   2.7928460
 AtZNuc=   1.0000000   1.0000000   1.0000000   1.0000000   1.0000000   1.0000000   1.0000000   1.0000000   1.0000000   1.0000000

  Atom        41          42          43          44          45          46          47          48
 IAtWgt=           1           1           1           1           1           1           1           1
 AtmWgt=   1.0078250   1.0078250   1.0078250   1.0078250   1.0078250   1.0078250   1.0078250   1.0078250
 NucSpn=           1           1           1           1           1           1           1           1
 AtZEff=  -0.0000000  -0.0000000  -0.0000000  -0.0000000  -0.0000000  -0.0000000  -0.0000000  -0.0000000
 NQMom=    0.0000000   0.0000000   0.0000000   0.0000000   0.0000000   0.0000000   0.0000000   0.0000000
 NMagM=    2.7928460   2.7928460   2.7928460   2.7928460   2.7928460   2.7928460   2.7928460   2.7928460
 AtZNuc=   1.0000000   1.0000000   1.0000000   1.0000000   1.0000000   1.0000000   1.0000000   1.0000000
 Leave Link  101 at Mon Dec  6 11:57:48 2021, MaxMem=   104857600 cpu:               0.2 elap:               0.2
 (Enter /usr/local/g16reva03/legacy_cpu/g16/l202.exe)
                          Input orientation:                          
 ---------------------------------------------------------------------
 Center     Atomic      Atomic             Coordinates (Angstroms)
 Number     Number       Type             X           Y           Z
 ---------------------------------------------------------------------
      1          1           0        0.000000    0.000000    0.000000
      2          1           0        0.000000    0.000000    1.000000
      3          1           0        0.000000    0.000000    2.000000
      4          1           0        0.000000    0.000000    3.000000
      5          1           0        0.000000    0.000000    4.000000
      6          1           0        0.000000    0.000000    5.000000
      7          1           0        0.000000    0.000000    6.000000
      8          1           0        0.000000    0.000000    7.000000
      9          1           0        0.000000    0.000000    8.000000
     10          1           0        0.000000    0.000000    9.000000
     11          1           0        0.000000    0.000000   10.000000
     12          1           0        0.000000    0.000000   11.000000
     13          1           0        0.000000    0.000000   12.000000
     14          1           0        0.000000    0.000000   13.000000
     15          1           0        0.000000    0.000000   14.000000
     16          1           0        0.000000    0.000000   15.000000
     17          1           0        0.000000    0.000000   16.000000
     18          1           0        0.000000    0.000000   17.000000
     19          1           0        0.000000    0.000000   18.000000
     20          1           0        0.000000    0.000000   19.000000
     21          1           0        0.000000    0.000000   20.000000
     22          1           0        0.000000    0.000000   21.000000
     23          1           0        0.000000    0.000000   22.000000
     24          1           0        0.000000    0.000000   23.000000
     25          1           0        0.000000    0.000000   24.000000
     26          1           0        0.000000    0.000000   25.000000
     27          1           0        0.000000    0.000000   26.000000
     28          1           0        0.000000    0.000000   27.000000
     29          1           0        0.000000    0.000000   28.000000
     30          1           0        0.000000    0.000000   29.000000
     31          1           0        0.000000    0.000000   30.000000
     32          1           0        0.000000    0.000000   31.000000
     33          1           0        0.000000    0.000000   32.000000
     34          1           0        0.000000    0.000000   33.000000
     35          1           0        0.000000    0.000000   34.000000
     36          1           0        0.000000    0.000000   35.000000
     37          1           0        0.000000    0.000000   36.000000
     38          1           0        0.000000    0.000000   37.000000
     39          1           0        0.000000    0.000000   38.000000
     40          1           0        0.000000    0.000000   39.000000
     41          1           0        0.000000    0.000000   40.000000
     42          1           0        0.000000    0.000000   41.000000
     43          1           0        0.000000    0.000000   42.000000
     44          1           0        0.000000    0.000000   43.000000
     45          1           0        0.000000    0.000000   44.000000
     46          1           0        0.000000    0.000000   45.000000
     47          1           0        0.000000    0.000000   46.000000
     48          1           0        0.000000    0.000000   47.000000
 ---------------------------------------------------------------------
                    Distance matrix (angstroms):
                    1          2          3          4          5
     1  H    0.000000
     2  H    1.000000   0.000000
     3  H    2.000000   1.000000   0.000000
     4  H    3.000000   2.000000   1.000000   0.000000
     5  H    4.000000   3.000000   2.000000   1.000000   0.000000
     6  H    5.000000   4.000000   3.000000   2.000000   1.000000
     7  H    6.000000   5.000000   4.000000   3.000000   2.000000
     8  H    7.000000   6.000000   5.000000   4.000000   3.000000
     9  H    8.000000   7.000000   6.000000   5.000000   4.000000
    10  H    9.000000   8.000000   7.000000   6.000000   5.000000
    11  H   10.000000   9.000000   8.000000   7.000000   6.000000
    12  H   11.000000  10.000000   9.000000   8.000000   7.000000
    13  H   12.000000  11.000000  10.000000   9.000000   8.000000
    14  H   13.000000  12.000000  11.000000  10.000000   9.000000
    15  H   14.000000  13.000000  12.000000  11.000000  10.000000
    16  H   15.000000  14.000000  13.000000  12.000000  11.000000
    17  H   16.000000  15.000000  14.000000  13.000000  12.000000
    18  H   17.000000  16.000000  15.000000  14.000000  13.000000
    19  H   18.000000  17.000000  16.000000  15.000000  14.000000
    20  H   19.000000  18.000000  17.000000  16.000000  15.000000
    21  H   20.000000  19.000000  18.000000  17.000000  16.000000
    22  H   21.000000  20.000000  19.000000  18.000000  17.000000
    23  H   22.000000  21.000000  20.000000  19.000000  18.000000
    24  H   23.000000  22.000000  21.000000  20.000000  19.000000
    25  H   24.000000  23.000000  22.000000  21.000000  20.000000
    26  H   25.000000  24.000000  23.000000  22.000000  21.000000
    27  H   26.000000  25.000000  24.000000  23.000000  22.000000
    28  H   27.000000  26.000000  25.000000  24.000000  23.000000
    29  H   28.000000  27.000000  26.000000  25.000000  24.000000
    30  H   29.000000  28.000000  27.000000  26.000000  25.000000
    31  H   30.000000  29.000000  28.000000  27.000000  26.000000
    32  H   31.000000  30.000000  29.000000  28.000000  27.000000
    33  H   32.000000  31.000000  30.000000  29.000000  28.000000
    34  H   33.000000  32.000000  31.000000  30.000000  29.000000
    35  H   34.000000  33.000000  32.000000  31.000000  30.000000
    36  H   35.000000  34.000000  33.000000  32.000000  31.000000
    37  H   36.000000  35.000000  34.000000  33.000000  32.000000
    38  H   37.000000  36.000000  35.000000  34.000000  33.000000
    39  H   38.000000  37.000000  36.000000  35.000000  34.000000
    40  H   39.000000  38.000000  37.000000  36.000000  35.000000
    41  H   40.000000  39.000000  38.000000  37.000000  36.000000
    42  H   41.000000  40.000000  39.000000  38.000000  37.000000
    43  H   42.000000  41.000000  40.000000  39.000000  38.000000
    44  H   43.000000  42.000000  41.000000  40.000000  39.000000
    45  H   44.000000  43.000000  42.000000  41.000000  40.000000
    46  H   45.000000  44.000000  43.000000  42.000000  41.000000
    47  H   46.000000  45.000000  44.000000  43.000000  42.000000
    48  H   47.000000  46.000000  45.000000  44.000000  43.000000
                    6          7          8          9         10
     6  H    0.000000
     7  H    1.000000   0.000000
     8  H    2.000000   1.000000   0.000000
     9  H    3.000000   2.000000   1.000000   0.000000
    10  H    4.000000   3.000000   2.000000   1.000000   0.000000
    11  H    5.000000   4.000000   3.000000   2.000000   1.000000
    12  H    6.000000   5.000000   4.000000   3.000000   2.000000
    13  H    7.000000   6.000000   5.000000   4.000000   3.000000
    14  H    8.000000   7.000000   6.000000   5.000000   4.000000
    15  H    9.000000   8.000000   7.000000   6.000000   5.000000
    16  H   10.000000   9.000000   8.000000   7.000000   6.000000
    17  H   11.000000  10.000000   9.000000   8.000000   7.000000
    18  H   12.000000  11.000000  10.000000   9.000000   8.000000
    19  H   13.000000  12.000000  11.000000  10.000000   9.000000
    20  H   14.000000  13.000000  12.000000  11.000000  10.000000
    21  H   15.000000  14.000000  13.000000  12.000000  11.000000
    22  H   16.000000  15.000000  14.000000  13.000000  12.000000
    23  H   17.000000  16.000000  15.000000  14.000000  13.000000
    24  H   18.000000  17.000000  16.000000  15.000000  14.000000
    25  H   19.000000  18.000000  17.000000  16.000000  15.000000
    26  H   20.000000  19.000000  18.000000  17.000000  16.000000
    27  H   21.000000  20.000000  19.000000  18.000000  17.000000
    28  H   22.000000  21.000000  20.000000  19.000000  18.000000
    29  H   23.000000  22.000000  21.000000  20.000000  19.000000
    30  H   24.000000  23.000000  22.000000  21.000000  20.000000
    31  H   25.000000  24.000000  23.000000  22.000000  21.000000
    32  H   26.000000  25.000000  24.000000  23.000000  22.000000
    33  H   27.000000  26.000000  25.000000  24.000000  23.000000
    34  H   28.000000  27.000000  26.000000  25.000000  24.000000
    35  H   29.000000  28.000000  27.000000  26.000000  25.000000
    36  H   30.000000  29.000000  28.000000  27.000000  26.000000
    37  H   31.000000  30.000000  29.000000  28.000000  27.000000
    38  H   32.000000  31.000000  30.000000  29.000000  28.000000
    39  H   33.000000  32.000000  31.000000  30.000000  29.000000
    40  H   34.000000  33.000000  32.000000  31.000000  30.000000
    41  H   35.000000  34.000000  33.000000  32.000000  31.000000
    42  H   36.000000  35.000000  34.000000  33.000000  32.000000
    43  H   37.000000  36.000000  35.000000  34.000000  33.000000
    44  H   38.000000  37.000000  36.000000  35.000000  34.000000
    45  H   39.000000  38.000000  37.000000  36.000000  35.000000
    46  H   40.000000  39.000000  38.000000  37.000000  36.000000
    47  H   41.000000  40.000000  39.000000  38.000000  37.000000
    48  H   42.000000  41.000000  40.000000  39.000000  38.000000
                   11         12         13         14         15
    11  H    0.000000
    12  H    1.000000   0.000000
    13  H    2.000000   1.000000   0.000000
    14  H    3.000000   2.000000   1.000000   0.000000
    15  H    4.000000   3.000000   2.000000   1.000000   0.000000
    16  H    5.000000   4.000000   3.000000   2.000000   1.000000
    17  H    6.000000   5.000000   4.000000   3.000000   2.000000
    18  H    7.000000   6.000000   5.000000   4.000000   3.000000
    19  H    8.000000   7.000000   6.000000   5.000000   4.000000
    20  H    9.000000   8.000000   7.000000   6.000000   5.000000
    21  H   10.000000   9.000000   8.000000   7.000000   6.000000
    22  H   11.000000  10.000000   9.000000   8.000000   7.000000
    23  H   12.000000  11.000000  10.000000   9.000000   8.000000
    24  H   13.000000  12.000000  11.000000  10.000000   9.000000
    25  H   14.000000  13.000000  12.000000  11.000000  10.000000
    26  H   15.000000  14.000000  13.000000  12.000000  11.000000
    27  H   16.000000  15.000000  14.000000  13.000000  12.000000
    28  H   17.000000  16.000000  15.000000  14.000000  13.000000
    29  H   18.000000  17.000000  16.000000  15.000000  14.000000
    30  H   19.000000  18.000000  17.000000  16.000000  15.000000
    31  H   20.000000  19.000000  18.000000  17.000000  16.000000
    32  H   21.000000  20.000000  19.000000  18.000000  17.000000
    33  H   22.000000  21.000000  20.000000  19.000000  18.000000
    34  H   23.000000  22.000000  21.000000  20.000000  19.000000
    35  H   24.000000  23.000000  22.000000  21.000000  20.000000
    36  H   25.000000  24.000000  23.000000  22.000000  21.000000
    37  H   26.000000  25.000000  24.000000  23.000000  22.000000
    38  H   27.000000  26.000000  25.000000  24.000000  23.000000
    39  H   28.000000  27.000000  26.000000  25.000000  24.000000
    40  H   29.000000  28.000000  27.000000  26.000000  25.000000
    41  H   30.000000  29.000000  28.000000  27.000000  26.000000
    42  H   31.000000  30.000000  29.000000  28.000000  27.000000
    43  H   32.000000  31.000000  30.000000  29.000000  28.000000
    44  H   33.000000  32.000000  31.000000  30.000000  29.000000
    45  H   34.000000  33.000000  32.000000  31.000000  30.000000
    46  H   35.000000  34.000000  33.000000  32.000000  31.000000
    47  H   36.000000  35.000000  34.000000  33.000000  32.000000
    48  H   37.000000  36.000000  35.000000  34.000000  33.000000
                   16         17         18         19         20
    16  H    0.000000
    17  H    1.000000   0.000000
    18  H    2.000000   1.000000   0.000000
    19  H    3.000000   2.000000   1.000000   0.000000
    20  H    4.000000   3.000000   2.000000   1.000000   0.000000
    21  H    5.000000   4.000000   3.000000   2.000000   1.000000
    22  H    6.000000   5.000000   4.000000   3.000000   2.000000
    23  H    7.000000   6.000000   5.000000   4.000000   3.000000
    24  H    8.000000   7.000000   6.000000   5.000000   4.000000
    25  H    9.000000   8.000000   7.000000   6.000000   5.000000
    26  H   10.000000   9.000000   8.000000   7.000000   6.000000
    27  H   11.000000  10.000000   9.000000   8.000000   7.000000
    28  H   12.000000  11.000000  10.000000   9.000000   8.000000
    29  H   13.000000  12.000000  11.000000  10.000000   9.000000
    30  H   14.000000  13.000000  12.000000  11.000000  10.000000
    31  H   15.000000  14.000000  13.000000  12.000000  11.000000
    32  H   16.000000  15.000000  14.000000  13.000000  12.000000
    33  H   17.000000  16.000000  15.000000  14.000000  13.000000
    34  H   18.000000  17.000000  16.000000  15.000000  14.000000
    35  H   19.000000  18.000000  17.000000  16.000000  15.000000
    36  H   20.000000  19.000000  18.000000  17.000000  16.000000
    37  H   21.000000  20.000000  19.000000  18.000000  17.000000
    38  H   22.000000  21.000000  20.000000  19.000000  18.000000
    39  H   23.000000  22.000000  21.000000  20.000000  19.000000
    40  H   24.000000  23.000000  22.000000  21.000000  20.000000
    41  H   25.000000  24.000000  23.000000  22.000000  21.000000
    42  H   26.000000  25.000000  24.000000  23.000000  22.000000
    43  H   27.000000  26.000000  25.000000  24.000000  23.000000
    44  H   28.000000  27.000000  26.000000  25.000000  24.000000
    45  H   29.000000  28.000000  27.000000  26.000000  25.000000
    46  H   30.000000  29.000000  28.000000  27.000000  26.000000
    47  H   31.000000  30.000000  29.000000  28.000000  27.000000
    48  H   32.000000  31.000000  30.000000  29.000000  28.000000
                   21         22         23         24         25
    21  H    0.000000
    22  H    1.000000   0.000000
    23  H    2.000000   1.000000   0.000000
    24  H    3.000000   2.000000   1.000000   0.000000
    25  H    4.000000   3.000000   2.000000   1.000000   0.000000
    26  H    5.000000   4.000000   3.000000   2.000000   1.000000
    27  H    6.000000   5.000000   4.000000   3.000000   2.000000
    28  H    7.000000   6.000000   5.000000   4.000000   3.000000
    29  H    8.000000   7.000000   6.000000   5.000000   4.000000
    30  H    9.000000   8.000000   7.000000   6.000000   5.000000
    31  H   10.000000   9.000000   8.000000   7.000000   6.000000
    32  H   11.000000  10.000000   9.000000   8.000000   7.000000
    33  H   12.000000  11.000000  10.000000   9.000000   8.000000
    34  H   13.000000  12.000000  11.000000  10.000000   9.000000
    35  H   14.000000  13.000000  12.000000  11.000000  10.000000
    36  H   15.000000  14.000000  13.000000  12.000000  11.000000
    37  H   16.000000  15.000000  14.000000  13.000000  12.000000
    38  H   17.000000  16.000000  15.000000  14.000000  13.000000
    39  H   18.000000  17.000000  16.000000  15.000000  14.000000
    40  H   19.000000  18.000000  17.000000  16.000000  15.000000
    41  H   20.000000  19.000000  18.000000  17.000000  16.000000
    42  H   21.000000  20.000000  19.000000  18.000000  17.000000
    43  H   22.000000  21.000000  20.000000  19.000000  18.000000
    44  H   23.000000  22.000000  21.000000  20.000000  19.000000
    45  H   24.000000  23.000000  22.000000  21.000000  20.000000
    46  H   25.000000  24.000000  23.000000  22.000000  21.000000
    47  H   26.000000  25.000000  24.000000  23.000000  22.000000
    48  H   27.000000  26.000000  25.000000  24.000000  23.000000
                   26         27         28         29         30
    26  H    0.000000
    27  H    1.000000   0.000000
    28  H    2.000000   1.000000   0.000000
    29  H    3.000000   2.000000   1.000000   0.000000
    30  H    4.000000   3.000000   2.000000   1.000000   0.000000
    31  H    5.000000   4.000000   3.000000   2.000000   1.000000
    32  H    6.000000   5.000000   4.000000   3.000000   2.000000
    33  H    7.000000   6.000000   5.000000   4.000000   3.000000
    34  H    8.000000   7.000000   6.000000   5.000000   4.000000
    35  H    9.000000   8.000000   7.000000   6.000000   5.000000
    36  H   10.000000   9.000000   8.000000   7.000000   6.000000
    37  H   11.000000  10.000000   9.000000   8.000000   7.000000
    38  H   12.000000  11.000000  10.000000   9.000000   8.000000
    39  H   13.000000  12.000000  11.000000  10.000000   9.000000
    40  H   14.000000  13.000000  12.000000  11.000000  10.000000
    41  H   15.000000  14.000000  13.000000  12.000000  11.000000
    42  H   16.000000  15.000000  14.000000  13.000000  12.000000
    43  H   17.000000  16.000000  15.000000  14.000000  13.000000
    44  H   18.000000  17.000000  16.000000  15.000000  14.000000
    45  H   19.000000  18.000000  17.000000  16.000000  15.000000
    46  H   20.000000  19.000000  18.000000  17.000000  16.000000
    47  H   21.000000  20.000000  19.000000  18.000000  17.000000
    48  H   22.000000  21.000000  20.000000  19.000000  18.000000
                   31         32         33         34         35
    31  H    0.000000
    32  H    1.000000   0.000000
    33  H    2.000000   1.000000   0.000000
    34  H    3.000000   2.000000   1.000000   0.000000
    35  H    4.000000   3.000000   2.000000   1.000000   0.000000
    36  H    5.000000   4.000000   3.000000   2.000000   1.000000
    37  H    6.000000   5.000000   4.000000   3.000000   2.000000
    38  H    7.000000   6.000000   5.000000   4.000000   3.000000
    39  H    8.000000   7.000000   6.000000   5.000000   4.000000
    40  H    9.000000   8.000000   7.000000   6.000000   5.000000
    41  H   10.000000   9.000000   8.000000   7.000000   6.000000
    42  H   11.000000  10.000000   9.000000   8.000000   7.000000
    43  H   12.000000  11.000000  10.000000   9.000000   8.000000
    44  H   13.000000  12.000000  11.000000  10.000000   9.000000
    45  H   14.000000  13.000000  12.000000  11.000000  10.000000
    46  H   15.000000  14.000000  13.000000  12.000000  11.000000
    47  H   16.000000  15.000000  14.000000  13.000000  12.000000
    48  H   17.000000  16.000000  15.000000  14.000000  13.000000
                   36         37         38         39         40
    36  H    0.000000
    37  H    1.000000   0.000000
    38  H    2.000000   1.000000   0.000000
    39  H    3.000000   2.000000   1.000000   0.000000
    40  H    4.000000   3.000000   2.000000   1.000000   0.000000
    41  H    5.000000   4.000000   3.000000   2.000000   1.000000
    42  H    6.000000   5.000000   4.000000   3.000000   2.000000
    43  H    7.000000   6.000000   5.000000   4.000000   3.000000
    44  H    8.000000   7.000000   6.000000   5.000000   4.000000
    45  H    9.000000   8.000000   7.000000   6.000000   5.000000
    46  H   10.000000   9.000000   8.000000   7.000000   6.000000
    47  H   11.000000  10.000000   9.000000   8.000000   7.000000
    48  H   12.000000  11.000000  10.000000   9.000000   8.000000
                   41         42         43         44         45
    41  H    0.000000
    42  H    1.000000   0.000000
    43  H    2.000000   1.000000   0.000000
    44  H    3.000000   2.000000   1.000000   0.000000
    45  H    4.000000   3.000000   2.000000   1.000000   0.000000
    46  H    5.000000   4.000000   3.000000   2.000000   1.000000
    47  H    6.000000   5.000000   4.000000   3.000000   2.000000
    48  H    7.000000   6.000000   5.000000   4.000000   3.000000
                   46         47         48
    46  H    0.000000
    47  H    1.000000   0.000000
    48  H    2.000000   1.000000   0.000000
 Symmetry turned off by external request.
 Stoichiometry    H48
 Framework group  D*H[C*(HHHHHHHHHHHHHHHHHHHHHHHH.HHHHHHHHHHHHHHHHHHHHHHHH)]
 Deg. of freedom    24
 Full point group                 D*H     NOp   8
 Rotational constants (GHZ):           0.0000000           0.0544350           0.0544350
 Leave Link  202 at Mon Dec  6 11:57:48 2021, MaxMem=   104857600 cpu:               0.1 elap:               0.1
 (Enter /usr/local/g16reva03/legacy_cpu/g16/l301.exe)
 Standard basis: STO-3G (5D, 7F)
 Ernie: Thresh=  0.10000D-02 Tol=  0.10000D-05 Strict=F.
    48 basis functions,   144 primitive gaussians,    48 cartesian basis functions
    24 alpha electrons       24 beta electrons
       nuclear repulsion energy        87.8551988274 Hartrees.
 IExCor=    0 DFT=F Ex=HF Corr=None ExCW=0 ScaHFX=  1.000000
 ScaDFX=  1.000000  1.000000  1.000000  1.000000 ScalE2=  1.000000  1.000000
 IRadAn=      5 IRanWt=     -1 IRanGd=            0 ICorTp=0 IEmpDi=  4
 NAtoms=   48 NActive=   48 NUniq=   48 SFac= 1.00D+00 NAtFMM=   60 NAOKFM=F Big=F
 Integral buffers will be    131072 words long.
 Regular integral format.
 Two-electron integral symmetry is turned off.
 Leave Link  301 at Mon Dec  6 11:57:48 2021, MaxMem=   104857600 cpu:               0.1 elap:               0.1
 (Enter /usr/local/g16reva03/legacy_cpu/g16/l302.exe)
 NPDir=0 NMtPBC=     1 NCelOv=     1 NCel=       1 NClECP=     1 NCelD=      1
         NCelK=      1 NCelE2=     1 NClLst=     1 CellRange=     0.0.
 One-electron integrals computed using PRISM.
 NBasis=    48 RedAO= T EigKep=  2.13D-01  NBF=    48
 NBsUse=    48 1.00D-06 EigRej= -1.00D+00 NBFU=    48
 Leave Link  302 at Mon Dec  6 11:57:48 2021, MaxMem=   104857600 cpu:               0.1 elap:               0.1
 (Enter /usr/local/g16reva03/legacy_cpu/g16/l303.exe)
 DipDrv:  MaxL=1.
 Leave Link  303 at Mon Dec  6 11:57:48 2021, MaxMem=   104857600 cpu:               0.1 elap:               0.1
 (Enter /usr/local/g16reva03/legacy_cpu/g16/l308.exe)
 Leave Link  308 at Mon Dec  6 11:57:48 2021, MaxMem=   104857600 cpu:               0.1 elap:               0.1
 (Enter /usr/local/g16reva03/legacy_cpu/g16/l320.exe)
 Enter DskPsm, NBasis=  48 NBas6D=  48 NShell=  48 IDoSP=4.
 Out2e will use a cutoff of  1.00D-10
 FoFCou: FMM=F IPFlag=           0 FMFlag=           0 FMFlg1=           0
         NFxFlg=           0 DoJE=F BraDBF=F KetDBF=F FulRan=T
         wScrn=  0.000000 ICntrl=       600 IOpCl=  9 I1Cent=           0 NGrid=           0
         NMat0=    0 NMatS0=      0 NMatT0=    0 NMatD0=    0 NMtDS0=    0 NMtDT0=    0
 Symmetry not used in FoFCou.
        54057 integrals produced for a total of        54057.
 Leave Link  320 at Mon Dec  6 11:57:49 2021, MaxMem=   104857600 cpu:               0.2 elap:               0.2
 (Enter /usr/local/g16reva03/legacy_cpu/g16/l401.exe)
 ExpMin= 1.69D-01 ExpMax= 3.43D+00 ExpMxC= 3.43D+00 IAcc=3 IRadAn=         5 AccDes= 0.00D+00
 Harris functional with IExCor=  205 and IRadAn=       5 diagonalized for initial guess.
 HarFok:  IExCor=  205 AccDes= 0.00D+00 IRadAn=         5 IDoV= 1 UseB2=F ITyADJ=14
 ICtDFT=  3500011 ScaDFX=  1.000000  1.000000  1.000000  1.000000
 FoFCou: FMM=F IPFlag=           0 FMFlag=      100000 FMFlg1=           0
         NFxFlg=           0 DoJE=T BraDBF=F KetDBF=T FulRan=T
         wScrn=  0.000000 ICntrl=       500 IOpCl=  0 I1Cent=   200000004 NGrid=           0
         NMat0=    1 NMatS0=      1 NMatT0=    0 NMatD0=    1 NMtDS0=    0 NMtDT0=    0
 Symmetry not used in FoFCou.
 Harris En= -27.2510747463577    
 JPrj=0 DoOrth=F DoCkMO=F.
 Leave Link  401 at Mon Dec  6 11:57:55 2021, MaxMem=   104857600 cpu:               6.3 elap:               6.4
 (Enter /usr/local/g16reva03/legacy_cpu/g16/l502.exe)
 Two-electron integral symmetry not used.
 Closed shell SCF:
 Using DIIS extrapolation, IDIIS=  1040.
 Unsorted integral processing.
 NGot=   104857600 LenX=   104588948 LenY=   104586203
 Requested convergence on RMS density matrix=1.00D-08 within 128 cycles.
 Requested convergence on MAX density matrix=1.00D-06.
 Requested convergence on             energy=1.00D-06.
 No special actions if energy rises.

 Cycle   1  Pass 1  IDiag  1:
 E= -24.9363239211267    
 DIIS: error= 7.23D-03 at cycle   1 NSaved=   1.
 NSaved= 1 IEnMin= 1 EnMin= -24.9363239211267     IErMin= 1 ErrMin= 7.23D-03
 ErrMax= 7.23D-03  0.00D+00 EMaxC= 1.00D-01 BMatC= 4.00D-03 BMatP= 4.00D-03
 IDIUse=3 WtCom= 9.28D-01 WtEn= 7.23D-02
 Coeff-Com:  0.100D+01
 Coeff-En:   0.100D+01
 Coeff:      0.100D+01
 Gap=     0.118 Goal=   None    Shift=    0.000
 GapD=    0.118 DampG=1.000 DampE=1.000 DampFc=1.0000 IDamp=-1.
 RMSDP=5.83D-03 MaxDP=2.51D-02              OVMax= 0.00D+00

 Cycle   2  Pass 1  IDiag  1:
 E= -24.9636643195360     Delta-E=       -0.027340398409 Rises=F Damp=F
 DIIS: error= 6.10D-03 at cycle   2 NSaved=   2.
 NSaved= 2 IEnMin= 2 EnMin= -24.9636643195360     IErMin= 2 ErrMin= 6.10D-03
 ErrMax= 6.10D-03  0.00D+00 EMaxC= 1.00D-01 BMatC= 1.74D-03 BMatP= 4.00D-03
 IDIUse=3 WtCom= 9.39D-01 WtEn= 6.10D-02
 Coeff-Com: -0.477D+00 0.148D+01
 Coeff-En:   0.000D+00 0.100D+01
 Coeff:     -0.448D+00 0.145D+01
 Gap=     0.151 Goal=   None    Shift=    0.000
 RMSDP=5.67D-03 MaxDP=2.12D-02 DE=-2.73D-02 OVMax= 0.00D+00

 Cycle   3  Pass 1  IDiag  1:
 E= -24.9802265344963     Delta-E=       -0.016562214960 Rises=F Damp=F
 DIIS: error= 3.65D-03 at cycle   3 NSaved=   3.
 NSaved= 3 IEnMin= 3 EnMin= -24.9802265344963     IErMin= 3 ErrMin= 3.65D-03
 ErrMax= 3.65D-03  0.00D+00 EMaxC= 1.00D-01 BMatC= 6.22D-04 BMatP= 1.74D-03
 IDIUse=3 WtCom= 9.63D-01 WtEn= 3.65D-02
 Coeff-Com:  0.182D+00-0.110D+01 0.192D+01
 Coeff-En:   0.000D+00 0.000D+00 0.100D+01
 Coeff:      0.175D+00-0.106D+01 0.189D+01
 Gap=     0.186 Goal=   None    Shift=    0.000
 RMSDP=4.85D-03 MaxDP=2.04D-02 DE=-1.66D-02 OVMax= 0.00D+00

 Cycle   4  Pass 1  IDiag  1:
 E= -24.9873037222284     Delta-E=       -0.007077187732 Rises=F Damp=F
 DIIS: error= 1.14D-03 at cycle   4 NSaved=   4.
 NSaved= 4 IEnMin= 4 EnMin= -24.9873037222284     IErMin= 4 ErrMin= 1.14D-03
 ErrMax= 1.14D-03  0.00D+00 EMaxC= 1.00D-01 BMatC= 7.71D-05 BMatP= 6.22D-04
 IDIUse=3 WtCom= 9.89D-01 WtEn= 1.14D-02
 Coeff-Com:  0.498D-01 0.267D+00-0.938D+00 0.162D+01
 Coeff-En:   0.000D+00 0.000D+00 0.000D+00 0.100D+01
 Coeff:      0.492D-01 0.264D+00-0.927D+00 0.161D+01
 Gap=     0.197 Goal=   None    Shift=    0.000
 RMSDP=1.38D-03 MaxDP=7.73D-03 DE=-7.08D-03 OVMax= 0.00D+00

 Cycle   5  Pass 1  IDiag  1:
 E= -24.9879769869488     Delta-E=       -0.000673264720 Rises=F Damp=F
 DIIS: error= 3.02D-04 at cycle   5 NSaved=   5.
 NSaved= 5 IEnMin= 5 EnMin= -24.9879769869488     IErMin= 5 ErrMin= 3.02D-04
 ErrMax= 3.02D-04  0.00D+00 EMaxC= 1.00D-01 BMatC= 5.63D-06 BMatP= 7.71D-05
 IDIUse=3 WtCom= 9.97D-01 WtEn= 3.02D-03
 Coeff-Com: -0.137D-01 0.870D-02-0.109D-03-0.264D+00 0.127D+01
 Coeff-En:   0.000D+00 0.000D+00 0.000D+00 0.000D+00 0.100D+01
 Coeff:     -0.136D-01 0.867D-02-0.109D-03-0.263D+00 0.127D+01
 Gap=     0.202 Goal=   None    Shift=    0.000
 RMSDP=4.94D-04 MaxDP=2.80D-03 DE=-6.73D-04 OVMax= 0.00D+00

 Cycle   6  Pass 1  IDiag  1:
 E= -24.9880297160992     Delta-E=       -0.000052729150 Rises=F Damp=F
 DIIS: error= 7.20D-05 at cycle   6 NSaved=   6.
 NSaved= 6 IEnMin= 6 EnMin= -24.9880297160992     IErMin= 6 ErrMin= 7.20D-05
 ErrMax= 7.20D-05  0.00D+00 EMaxC= 1.00D-01 BMatC= 3.00D-07 BMatP= 5.63D-06
 IDIUse=1 WtCom= 1.00D+00 WtEn= 0.00D+00
 Coeff-Com: -0.289D-02-0.210D-01 0.875D-01-0.104D+00-0.207D+00 0.125D+01
 Coeff:     -0.289D-02-0.210D-01 0.875D-01-0.104D+00-0.207D+00 0.125D+01
 Gap=     0.202 Goal=   None    Shift=    0.000
 RMSDP=5.25D-05 MaxDP=3.15D-04 DE=-5.27D-05 OVMax= 0.00D+00

 Cycle   7  Pass 1  IDiag  1:
 E= -24.9880313157731     Delta-E=       -0.000001599674 Rises=F Damp=F
 DIIS: error= 2.12D-05 at cycle   7 NSaved=   7.
 NSaved= 7 IEnMin= 7 EnMin= -24.9880313157731     IErMin= 7 ErrMin= 2.12D-05
 ErrMax= 2.12D-05  0.00D+00 EMaxC= 1.00D-01 BMatC= 1.96D-08 BMatP= 3.00D-07
 IDIUse=1 WtCom= 1.00D+00 WtEn= 0.00D+00
 Coeff-Com:  0.104D-02 0.407D-02-0.125D-01 0.291D-01-0.501D-01-0.201D+00
 Coeff-Com:  0.123D+01
 Coeff:      0.104D-02 0.407D-02-0.125D-01 0.291D-01-0.501D-01-0.201D+00
 Coeff:      0.123D+01
 Gap=     0.202 Goal=   None    Shift=    0.000
 RMSDP=1.73D-05 MaxDP=1.11D-04 DE=-1.60D-06 OVMax= 0.00D+00

 Cycle   8  Pass 1  IDiag  1:
 E= -24.9880314238155     Delta-E=       -0.000000108042 Rises=F Damp=F
 DIIS: error= 5.37D-06 at cycle   8 NSaved=   8.
 NSaved= 8 IEnMin= 8 EnMin= -24.9880314238155     IErMin= 8 ErrMin= 5.37D-06
 ErrMax= 5.37D-06  0.00D+00 EMaxC= 1.00D-01 BMatC= 1.76D-09 BMatP= 1.96D-08
 IDIUse=1 WtCom= 1.00D+00 WtEn= 0.00D+00
 Coeff-Com:  0.127D-03 0.126D-02-0.641D-02 0.621D-02 0.142D-01-0.886D-01
 Coeff-Com: -0.182D-01 0.109D+01
 Coeff:      0.127D-03 0.126D-02-0.641D-02 0.621D-02 0.142D-01-0.886D-01
 Coeff:     -0.182D-01 0.109D+01
 Gap=     0.202 Goal=   None    Shift=    0.000
 RMSDP=7.54D-06 MaxDP=5.27D-05 DE=-1.08D-07 OVMax= 0.00D+00

 Cycle   9  Pass 1  IDiag  1:
 E= -24.9880314363590     Delta-E=       -0.000000012543 Rises=F Damp=F
 DIIS: error= 1.34D-06 at cycle   9 NSaved=   9.
 NSaved= 9 IEnMin= 9 EnMin= -24.9880314363590     IErMin= 9 ErrMin= 1.34D-06
 ErrMax= 1.34D-06  0.00D+00 EMaxC= 1.00D-01 BMatC= 8.11D-11 BMatP= 1.76D-09
 IDIUse=1 WtCom= 1.00D+00 WtEn= 0.00D+00
 Coeff-Com: -0.876D-04-0.502D-03 0.184D-02-0.263D-02 0.205D-02 0.269D-01
 Coeff-Com: -0.792D-01-0.165D+00 0.122D+01
 Coeff:     -0.876D-04-0.502D-03 0.184D-02-0.263D-02 0.205D-02 0.269D-01
 Coeff:     -0.792D-01-0.165D+00 0.122D+01
 Gap=     0.202 Goal=   None    Shift=    0.000
 RMSDP=7.88D-07 MaxDP=4.87D-06 DE=-1.25D-08 OVMax= 0.00D+00

 Cycle  10  Pass 1  IDiag  1:
 E= -24.9880314367451     Delta-E=       -0.000000000386 Rises=F Damp=F
 DIIS: error= 3.80D-07 at cycle  10 NSaved=  10.
 NSaved=10 IEnMin=10 EnMin= -24.9880314367451     IErMin=10 ErrMin= 3.80D-07
 ErrMax= 3.80D-07  0.00D+00 EMaxC= 1.00D-01 BMatC= 5.36D-12 BMatP= 8.11D-11
 IDIUse=1 WtCom= 1.00D+00 WtEn= 0.00D+00
 Coeff-Com: -0.622D-06-0.475D-04 0.326D-03-0.255D-03-0.594D-03 0.390D-02
 Coeff-Com:  0.161D-02-0.552D-01-0.316D-02 0.105D+01
 Coeff:     -0.622D-06-0.475D-04 0.326D-03-0.255D-03-0.594D-03 0.390D-02
 Coeff:      0.161D-02-0.552D-01-0.316D-02 0.105D+01
 Gap=     0.202 Goal=   None    Shift=    0.000
 RMSDP=4.77D-07 MaxDP=2.61D-06 DE=-3.86D-10 OVMax= 0.00D+00

 Cycle  11  Pass 1  IDiag  1:
 E= -24.9880314367819     Delta-E=       -0.000000000037 Rises=F Damp=F
 DIIS: error= 7.72D-08 at cycle  11 NSaved=  11.
 NSaved=11 IEnMin=11 EnMin= -24.9880314367819     IErMin=11 ErrMin= 7.72D-08
 ErrMax= 7.72D-08  0.00D+00 EMaxC= 1.00D-01 BMatC= 3.09D-13 BMatP= 5.36D-12
 IDIUse=1 WtCom= 1.00D+00 WtEn= 0.00D+00
 Coeff-Com:  0.326D-05 0.324D-04-0.130D-03 0.140D-03-0.121D-03-0.165D-02
 Coeff-Com:  0.406D-02 0.119D-01-0.609D-01-0.953D-01 0.114D+01
 Coeff:      0.326D-05 0.324D-04-0.130D-03 0.140D-03-0.121D-03-0.165D-02
 Coeff:      0.406D-02 0.119D-01-0.609D-01-0.953D-01 0.114D+01
 Gap=     0.202 Goal=   None    Shift=    0.000
 RMSDP=9.10D-08 MaxDP=6.55D-07 DE=-3.68D-11 OVMax= 0.00D+00

 Cycle  12  Pass 1  IDiag  1:
 E= -24.9880314367842     Delta-E=       -0.000000000002 Rises=F Damp=F
 DIIS: error= 1.27D-08 at cycle  12 NSaved=  12.
 NSaved=12 IEnMin=12 EnMin= -24.9880314367842     IErMin=12 ErrMin= 1.27D-08
 ErrMax= 1.27D-08  0.00D+00 EMaxC= 1.00D-01 BMatC= 8.32D-15 BMatP= 3.09D-13
 IDIUse=1 WtCom= 1.00D+00 WtEn= 0.00D+00
 Coeff-Com: -0.148D-06 0.901D-06-0.108D-04 0.104D-04 0.143D-04-0.874D-04
 Coeff-Com: -0.928D-04 0.195D-02 0.183D-02-0.461D-01-0.341D-01 0.108D+01
 Coeff:     -0.148D-06 0.901D-06-0.108D-04 0.104D-04 0.143D-04-0.874D-04
 Coeff:     -0.928D-04 0.195D-02 0.183D-02-0.461D-01-0.341D-01 0.108D+01
 Gap=     0.202 Goal=   None    Shift=    0.000
 RMSDP=1.27D-08 MaxDP=7.28D-08 DE=-2.36D-12 OVMax= 0.00D+00

 Cycle  13  Pass 1  IDiag  1:
 E= -24.9880314367842     Delta-E=        0.000000000000 Rises=F Damp=F
 DIIS: error= 4.60D-09 at cycle  13 NSaved=  13.
 NSaved=13 IEnMin=12 EnMin= -24.9880314367842     IErMin=13 ErrMin= 4.60D-09
 ErrMax= 4.60D-09  0.00D+00 EMaxC= 1.00D-01 BMatC= 7.62D-16 BMatP= 8.32D-15
 IDIUse=1 WtCom= 1.00D+00 WtEn= 0.00D+00
 Coeff-Com: -0.105D-06-0.181D-05 0.765D-05-0.672D-05 0.535D-05 0.924D-04
 Coeff-Com: -0.215D-03-0.647D-03 0.328D-02 0.480D-02-0.597D-01 0.118D-01
 Coeff-Com:  0.104D+01
 Coeff:     -0.105D-06-0.181D-05 0.765D-05-0.672D-05 0.535D-05 0.924D-04
 Coeff:     -0.215D-03-0.647D-03 0.328D-02 0.480D-02-0.597D-01 0.118D-01
 Coeff:      0.104D+01
 Gap=     0.202 Goal=   None    Shift=    0.000
 RMSDP=5.20D-09 MaxDP=2.86D-08 DE= 5.68D-14 OVMax= 0.00D+00

 SCF Done:  E(RHF) =  -24.9880314368     A.U. after   13 cycles
            NFock= 13  Conv=0.52D-08     -V/T= 1.8522
 KE= 2.932024497127D+01 PE=-2.301223027789D+02 EE= 8.795882754336D+01
 Leave Link  502 at Mon Dec  6 11:57:55 2021, MaxMem=   104857600 cpu:               0.1 elap:               0.2
 (Enter /usr/local/g16reva03/legacy_cpu/g16/l601.exe)
 Copying SCF densities to generalized density rwf, IOpCl= 0 IROHF=0.

 **********************************************************************

            Population analysis using the SCF density.

 **********************************************************************

 Alpha  occ. eigenvalues --   -0.70508  -0.70261  -0.69836  -0.69243  -0.68479
 Alpha  occ. eigenvalues --   -0.67543  -0.66432  -0.65144  -0.63672  -0.62013
 Alpha  occ. eigenvalues --   -0.60161  -0.58107  -0.55845  -0.53366  -0.50659
 Alpha  occ. eigenvalues --   -0.47714  -0.44519  -0.41061  -0.37327  -0.33310
 Alpha  occ. eigenvalues --   -0.29014  -0.24477  -0.19851  -0.15677
 Alpha virt. eigenvalues --    0.04505   0.09076   0.14543   0.20338   0.26295
 Alpha virt. eigenvalues --    0.32363   0.38523   0.44767   0.51082   0.57453
 Alpha virt. eigenvalues --    0.63858   0.70266   0.76636   0.82920   0.89057
 Alpha virt. eigenvalues --    0.94979   1.00609   1.05865   1.10659   1.14903
 Alpha virt. eigenvalues --    1.18512   1.21410   1.23534   1.24843
          Condensed to atoms (all electrons):
               1          2          3          4          5          6
     1  H    0.746209   0.306993  -0.024069  -0.006748   0.000132   0.000025
     2  H    0.306993   0.642124   0.057957  -0.016730  -0.001310   0.000077
     3  H   -0.024069   0.057957   0.717873   0.282616  -0.021439  -0.006452
     4  H   -0.006748  -0.016730   0.282616   0.672665   0.079470  -0.018299
     5  H    0.000132  -0.001310  -0.021439   0.079470   0.703946   0.269760
     6  H    0.000025   0.000077  -0.006452  -0.018299   0.269760   0.680928
     7  H   -0.000000   0.000004   0.000115  -0.001699  -0.020643   0.089126
     8  H   -0.000000  -0.000000   0.000025   0.000088  -0.006257  -0.018827
     9  H    0.000000  -0.000000  -0.000000   0.000005   0.000110  -0.001892
    10  H    0.000000   0.000000  -0.000000  -0.000000   0.000024   0.000093
    11  H   -0.000000   0.000000   0.000000  -0.000000  -0.000000   0.000006
    12  H    0.000000  -0.000000   0.000000   0.000000  -0.000000  -0.000000
    13  H    0.000000   0.000000  -0.000000   0.000000   0.000000  -0.000000
    14  H    0.000000   0.000000   0.000000  -0.000000   0.000000   0.000000
    15  H    0.000000   0.000000   0.000000   0.000000  -0.000000   0.000000
    16  H    0.000000   0.000000   0.000000   0.000000   0.000000  -0.000000
    17  H    0.000000   0.000000   0.000000   0.000000   0.000000   0.000000
    18  H    0.000000   0.000000   0.000000   0.000000   0.000000   0.000000
    19  H    0.000000   0.000000   0.000000   0.000000   0.000000   0.000000
    20  H    0.000000   0.000000   0.000000   0.000000   0.000000   0.000000
    21  H    0.000000   0.000000   0.000000   0.000000   0.000000   0.000000
    22  H    0.000000   0.000000   0.000000   0.000000   0.000000   0.000000
    23  H    0.000000   0.000000   0.000000   0.000000   0.000000   0.000000
    24  H    0.000000   0.000000   0.000000   0.000000   0.000000   0.000000
    25  H    0.000000   0.000000   0.000000   0.000000   0.000000   0.000000
    26  H    0.000000   0.000000   0.000000   0.000000   0.000000   0.000000
    27  H    0.000000   0.000000   0.000000   0.000000   0.000000   0.000000
    28  H    0.000000   0.000000   0.000000   0.000000   0.000000   0.000000
    29  H    0.000000   0.000000   0.000000   0.000000   0.000000   0.000000
    30  H    0.000000   0.000000   0.000000   0.000000   0.000000   0.000000
    31  H    0.000000   0.000000   0.000000   0.000000   0.000000   0.000000
    32  H    0.000000   0.000000   0.000000   0.000000   0.000000   0.000000
    33  H    0.000000   0.000000   0.000000   0.000000   0.000000   0.000000
    34  H    0.000000   0.000000   0.000000   0.000000   0.000000   0.000000
    35  H    0.000000   0.000000   0.000000   0.000000   0.000000   0.000000
    36  H    0.000000   0.000000   0.000000   0.000000   0.000000   0.000000
    37  H    0.000000   0.000000   0.000000   0.000000   0.000000   0.000000
    38  H    0.000000   0.000000   0.000000   0.000000   0.000000   0.000000
    39  H    0.000000   0.000000   0.000000   0.000000   0.000000   0.000000
    40  H    0.000000   0.000000   0.000000   0.000000   0.000000   0.000000
    41  H    0.000000   0.000000   0.000000   0.000000   0.000000   0.000000
    42  H    0.000000   0.000000   0.000000   0.000000   0.000000   0.000000
    43  H    0.000000   0.000000   0.000000   0.000000   0.000000   0.000000
    44  H    0.000000   0.000000   0.000000   0.000000   0.000000   0.000000
    45  H    0.000000   0.000000   0.000000   0.000000   0.000000   0.000000
    46  H    0.000000   0.000000   0.000000   0.000000   0.000000   0.000000
    47  H    0.000000   0.000000   0.000000   0.000000   0.000000   0.000000
    48  H    0.000000   0.000000   0.000000   0.000000   0.000000   0.000000
               7          8          9         10         11         12
     1  H   -0.000000  -0.000000   0.000000   0.000000  -0.000000   0.000000
     2  H    0.000004  -0.000000  -0.000000   0.000000   0.000000  -0.000000
     3  H    0.000115   0.000025  -0.000000  -0.000000   0.000000   0.000000
     4  H   -0.001699   0.000088   0.000005  -0.000000  -0.000000   0.000000
     5  H   -0.020643  -0.006257   0.000110   0.000024  -0.000000  -0.000000
     6  H    0.089126  -0.018827  -0.001892   0.000093   0.000006  -0.000000
     7  H    0.698723   0.263352  -0.020291  -0.006151   0.000107   0.000024
     8  H    0.263352   0.684311   0.094271  -0.019078  -0.002000   0.000095
     9  H   -0.020291   0.094271   0.696134   0.259735  -0.020097  -0.006089
    10  H   -0.006151  -0.019078   0.259735   0.686121   0.097297  -0.019226
    11  H    0.000107  -0.002000  -0.020097   0.097297   0.694602   0.257535
    12  H    0.000024   0.000095  -0.006089  -0.019226   0.257535   0.687267
    13  H   -0.000000   0.000006   0.000105  -0.002066  -0.019975   0.099184
    14  H   -0.000000  -0.000000   0.000024   0.000097  -0.006050  -0.019326
    15  H    0.000000  -0.000000  -0.000000   0.000007   0.000104  -0.002108
    16  H    0.000000   0.000000  -0.000000  -0.000000   0.000024   0.000098
    17  H   -0.000000   0.000000   0.000000  -0.000000  -0.000000   0.000007
    18  H    0.000000  -0.000000   0.000000   0.000000  -0.000000  -0.000000
    19  H    0.000000   0.000000  -0.000000   0.000000   0.000000  -0.000000
    20  H    0.000000   0.000000   0.000000  -0.000000   0.000000   0.000000
    21  H    0.000000   0.000000   0.000000   0.000000  -0.000000   0.000000
    22  H    0.000000   0.000000   0.000000   0.000000   0.000000  -0.000000
    23  H    0.000000   0.000000   0.000000   0.000000   0.000000   0.000000
    24  H    0.000000   0.000000   0.000000   0.000000   0.000000   0.000000
    25  H    0.000000   0.000000   0.000000   0.000000   0.000000   0.000000
    26  H    0.000000   0.000000   0.000000   0.000000   0.000000   0.000000
    27  H    0.000000   0.000000   0.000000   0.000000   0.000000   0.000000
    28  H    0.000000   0.000000   0.000000   0.000000   0.000000   0.000000
    29  H    0.000000   0.000000   0.000000   0.000000   0.000000   0.000000
    30  H    0.000000   0.000000   0.000000   0.000000   0.000000   0.000000
    31  H    0.000000   0.000000   0.000000   0.000000   0.000000   0.000000
    32  H    0.000000   0.000000   0.000000   0.000000   0.000000   0.000000
    33  H    0.000000   0.000000   0.000000   0.000000   0.000000   0.000000
    34  H    0.000000   0.000000   0.000000   0.000000   0.000000   0.000000
    35  H    0.000000   0.000000   0.000000   0.000000   0.000000   0.000000
    36  H    0.000000   0.000000   0.000000   0.000000   0.000000   0.000000
    37  H    0.000000   0.000000   0.000000   0.000000   0.000000   0.000000
    38  H    0.000000   0.000000   0.000000   0.000000   0.000000   0.000000
    39  H    0.000000   0.000000   0.000000   0.000000   0.000000   0.000000
    40  H    0.000000   0.000000   0.000000   0.000000   0.000000   0.000000
    41  H    0.000000   0.000000   0.000000   0.000000   0.000000   0.000000
    42  H    0.000000   0.000000   0.000000   0.000000   0.000000   0.000000
    43  H    0.000000   0.000000   0.000000   0.000000   0.000000   0.000000
    44  H    0.000000   0.000000   0.000000   0.000000   0.000000   0.000000
    45  H    0.000000   0.000000   0.000000   0.000000   0.000000   0.000000
    46  H    0.000000   0.000000   0.000000   0.000000   0.000000   0.000000
    47  H    0.000000   0.000000   0.000000   0.000000   0.000000   0.000000
    48  H    0.000000   0.000000   0.000000   0.000000   0.000000   0.000000
              13         14         15         16         17         18
     1  H    0.000000   0.000000   0.000000   0.000000   0.000000   0.000000
     2  H    0.000000   0.000000   0.000000   0.000000   0.000000   0.000000
     3  H   -0.000000   0.000000   0.000000   0.000000   0.000000   0.000000
     4  H    0.000000  -0.000000   0.000000   0.000000   0.000000   0.000000
     5  H    0.000000   0.000000  -0.000000   0.000000   0.000000   0.000000
     6  H   -0.000000   0.000000   0.000000  -0.000000   0.000000   0.000000
     7  H   -0.000000  -0.000000   0.000000   0.000000  -0.000000   0.000000
     8  H    0.000006  -0.000000  -0.000000   0.000000   0.000000  -0.000000
     9  H    0.000105   0.000024  -0.000000  -0.000000   0.000000   0.000000
    10  H   -0.002066   0.000097   0.000007  -0.000000  -0.000000   0.000000
    11  H   -0.019975  -0.006050   0.000104   0.000024  -0.000000  -0.000000
    12  H    0.099184  -0.019326  -0.002108   0.000098   0.000007  -0.000000
    13  H    0.693580   0.256136  -0.019889  -0.006024   0.000103   0.000024
    14  H    0.256136   0.688083   0.100401  -0.019400  -0.002135   0.000098
    15  H   -0.019889   0.100401   0.692833   0.255223  -0.019823  -0.006008
    16  H   -0.006024  -0.019400   0.255223   0.688715   0.101200  -0.019460
    17  H    0.000103  -0.002135  -0.019823   0.101200   0.692243   0.254624
    18  H    0.000024   0.000098  -0.006008  -0.019460   0.254624   0.689239
    19  H   -0.000000   0.000007   0.000103  -0.002153  -0.019769   0.101720
    20  H   -0.000000  -0.000000   0.000024   0.000099  -0.005997  -0.019511
    21  H    0.000000  -0.000000  -0.000000   0.000007   0.000102  -0.002165
    22  H    0.000000   0.000000  -0.000000  -0.000000   0.000024   0.000100
    23  H   -0.000000   0.000000   0.000000  -0.000000  -0.000000   0.000007
    24  H    0.000000  -0.000000   0.000000   0.000000  -0.000000  -0.000000
    25  H    0.000000   0.000000  -0.000000   0.000000   0.000000  -0.000000
    26  H    0.000000   0.000000   0.000000  -0.000000   0.000000   0.000000
    27  H    0.000000   0.000000   0.000000   0.000000  -0.000000   0.000000
    28  H    0.000000   0.000000   0.000000   0.000000   0.000000  -0.000000
    29  H    0.000000   0.000000   0.000000   0.000000   0.000000   0.000000
    30  H    0.000000   0.000000   0.000000   0.000000   0.000000   0.000000
    31  H    0.000000   0.000000   0.000000   0.000000   0.000000   0.000000
    32  H    0.000000   0.000000   0.000000   0.000000   0.000000   0.000000
    33  H    0.000000   0.000000   0.000000   0.000000   0.000000   0.000000
    34  H    0.000000   0.000000   0.000000   0.000000   0.000000   0.000000
    35  H    0.000000   0.000000   0.000000   0.000000   0.000000   0.000000
    36  H    0.000000   0.000000   0.000000   0.000000   0.000000   0.000000
    37  H    0.000000   0.000000   0.000000   0.000000   0.000000   0.000000
    38  H    0.000000   0.000000   0.000000   0.000000   0.000000   0.000000
    39  H    0.000000   0.000000   0.000000   0.000000   0.000000   0.000000
    40  H    0.000000   0.000000   0.000000   0.000000   0.000000   0.000000
    41  H    0.000000   0.000000   0.000000   0.000000   0.000000   0.000000
    42  H    0.000000   0.000000   0.000000   0.000000   0.000000   0.000000
    43  H    0.000000   0.000000   0.000000   0.000000   0.000000   0.000000
    44  H    0.000000   0.000000   0.000000   0.000000   0.000000   0.000000
    45  H    0.000000   0.000000   0.000000   0.000000   0.000000   0.000000
    46  H    0.000000   0.000000   0.000000   0.000000   0.000000   0.000000
    47  H    0.000000   0.000000   0.000000   0.000000   0.000000   0.000000
    48  H    0.000000   0.000000   0.000000   0.000000   0.000000   0.000000
              19         20         21         22         23         24
     1  H    0.000000   0.000000   0.000000   0.000000   0.000000   0.000000
     2  H    0.000000   0.000000   0.000000   0.000000   0.000000   0.000000
     3  H    0.000000   0.000000   0.000000   0.000000   0.000000   0.000000
     4  H    0.000000   0.000000   0.000000   0.000000   0.000000   0.000000
     5  H    0.000000   0.000000   0.000000   0.000000   0.000000   0.000000
     6  H    0.000000   0.000000   0.000000   0.000000   0.000000   0.000000
     7  H    0.000000   0.000000   0.000000   0.000000   0.000000   0.000000
     8  H    0.000000   0.000000   0.000000   0.000000   0.000000   0.000000
     9  H   -0.000000   0.000000   0.000000   0.000000   0.000000   0.000000
    10  H    0.000000  -0.000000   0.000000   0.000000   0.000000   0.000000
    11  H    0.000000   0.000000  -0.000000   0.000000   0.000000   0.000000
    12  H   -0.000000   0.000000   0.000000  -0.000000   0.000000   0.000000
    13  H   -0.000000  -0.000000   0.000000   0.000000  -0.000000   0.000000
    14  H    0.000007  -0.000000  -0.000000   0.000000   0.000000  -0.000000
    15  H    0.000103   0.000024  -0.000000  -0.000000   0.000000   0.000000
    16  H   -0.002153   0.000099   0.000007  -0.000000  -0.000000   0.000000
    17  H   -0.019769  -0.005997   0.000102   0.000024  -0.000000  -0.000000
    18  H    0.101720  -0.019511  -0.002165   0.000100   0.000007  -0.000000
    19  H    0.691749   0.254240  -0.019722  -0.005990   0.000102   0.000024
    20  H    0.254240   0.689697   0.102045  -0.019556  -0.002172   0.000100
    21  H   -0.019722   0.102045   0.691312   0.254010  -0.019679  -0.005987
    22  H   -0.005990  -0.019556   0.254010   0.690114   0.102224  -0.019598
    23  H    0.000102  -0.002172  -0.019679   0.102224   0.690906   0.253903
    24  H    0.000024   0.000100  -0.005987  -0.019598   0.253903   0.690512
    25  H   -0.000000   0.000007   0.000101  -0.002175  -0.019638   0.102281
    26  H   -0.000000  -0.000000   0.000024   0.000101  -0.005985  -0.019638
    27  H    0.000000  -0.000000  -0.000000   0.000007   0.000101  -0.002175
    28  H    0.000000   0.000000  -0.000000  -0.000000   0.000024   0.000101
    29  H   -0.000000   0.000000   0.000000  -0.000000  -0.000000   0.000007
    30  H    0.000000  -0.000000   0.000000   0.000000  -0.000000  -0.000000
    31  H    0.000000   0.000000  -0.000000   0.000000   0.000000  -0.000000
    32  H    0.000000   0.000000   0.000000  -0.000000   0.000000   0.000000
    33  H    0.000000   0.000000   0.000000   0.000000  -0.000000   0.000000
    34  H    0.000000   0.000000   0.000000   0.000000   0.000000  -0.000000
    35  H    0.000000   0.000000   0.000000   0.000000   0.000000   0.000000
    36  H    0.000000   0.000000   0.000000   0.000000   0.000000   0.000000
    37  H    0.000000   0.000000   0.000000   0.000000   0.000000   0.000000
    38  H    0.000000   0.000000   0.000000   0.000000   0.000000   0.000000
    39  H    0.000000   0.000000   0.000000   0.000000   0.000000   0.000000
    40  H    0.000000   0.000000   0.000000   0.000000   0.000000   0.000000
    41  H    0.000000   0.000000   0.000000   0.000000   0.000000   0.000000
    42  H    0.000000   0.000000   0.000000   0.000000   0.000000   0.000000
    43  H    0.000000   0.000000   0.000000   0.000000   0.000000   0.000000
    44  H    0.000000   0.000000   0.000000   0.000000   0.000000   0.000000
    45  H    0.000000   0.000000   0.000000   0.000000   0.000000   0.000000
    46  H    0.000000   0.000000   0.000000   0.000000   0.000000   0.000000
    47  H    0.000000   0.000000   0.000000   0.000000   0.000000   0.000000
    48  H    0.000000   0.000000   0.000000   0.000000   0.000000   0.000000
              25         26         27         28         29         30
     1  H    0.000000   0.000000   0.000000   0.000000   0.000000   0.000000
     2  H    0.000000   0.000000   0.000000   0.000000   0.000000   0.000000
     3  H    0.000000   0.000000   0.000000   0.000000   0.000000   0.000000
     4  H    0.000000   0.000000   0.000000   0.000000   0.000000   0.000000
     5  H    0.000000   0.000000   0.000000   0.000000   0.000000   0.000000
     6  H    0.000000   0.000000   0.000000   0.000000   0.000000   0.000000
     7  H    0.000000   0.000000   0.000000   0.000000   0.000000   0.000000
     8  H    0.000000   0.000000   0.000000   0.000000   0.000000   0.000000
     9  H    0.000000   0.000000   0.000000   0.000000   0.000000   0.000000
    10  H    0.000000   0.000000   0.000000   0.000000   0.000000   0.000000
    11  H    0.000000   0.000000   0.000000   0.000000   0.000000   0.000000
    12  H    0.000000   0.000000   0.000000   0.000000   0.000000   0.000000
    13  H    0.000000   0.000000   0.000000   0.000000   0.000000   0.000000
    14  H    0.000000   0.000000   0.000000   0.000000   0.000000   0.000000
    15  H   -0.000000   0.000000   0.000000   0.000000   0.000000   0.000000
    16  H    0.000000  -0.000000   0.000000   0.000000   0.000000   0.000000
    17  H    0.000000   0.000000  -0.000000   0.000000   0.000000   0.000000
    18  H   -0.000000   0.000000   0.000000  -0.000000   0.000000   0.000000
    19  H   -0.000000  -0.000000   0.000000   0.000000  -0.000000   0.000000
    20  H    0.000007  -0.000000  -0.000000   0.000000   0.000000  -0.000000
    21  H    0.000101   0.000024  -0.000000  -0.000000   0.000000   0.000000
    22  H   -0.002175   0.000101   0.000007  -0.000000  -0.000000   0.000000
    23  H   -0.019638  -0.005985   0.000101   0.000024  -0.000000  -0.000000
    24  H    0.102281  -0.019638  -0.002175   0.000101   0.000007  -0.000000
    25  H    0.690512   0.253903  -0.019598  -0.005987   0.000100   0.000024
    26  H    0.253903   0.690906   0.102224  -0.019679  -0.002172   0.000102
    27  H   -0.019598   0.102224   0.690114   0.254010  -0.019556  -0.005990
    28  H   -0.005987  -0.019679   0.254010   0.691312   0.102045  -0.019722
    29  H    0.000100  -0.002172  -0.019556   0.102045   0.689697   0.254240
    30  H    0.000024   0.000102  -0.005990  -0.019722   0.254240   0.691749
    31  H   -0.000000   0.000007   0.000100  -0.002165  -0.019511   0.101720
    32  H   -0.000000  -0.000000   0.000024   0.000102  -0.005997  -0.019769
    33  H    0.000000  -0.000000  -0.000000   0.000007   0.000099  -0.002153
    34  H    0.000000   0.000000  -0.000000  -0.000000   0.000024   0.000103
    35  H   -0.000000   0.000000   0.000000  -0.000000  -0.000000   0.000007
    36  H    0.000000  -0.000000   0.000000   0.000000  -0.000000  -0.000000
    37  H    0.000000   0.000000  -0.000000   0.000000   0.000000  -0.000000
    38  H    0.000000   0.000000   0.000000  -0.000000   0.000000   0.000000
    39  H    0.000000   0.000000   0.000000   0.000000  -0.000000   0.000000
    40  H    0.000000   0.000000   0.000000   0.000000   0.000000  -0.000000
    41  H    0.000000   0.000000   0.000000   0.000000   0.000000   0.000000
    42  H    0.000000   0.000000   0.000000   0.000000   0.000000   0.000000
    43  H    0.000000   0.000000   0.000000   0.000000   0.000000   0.000000
    44  H    0.000000   0.000000   0.000000   0.000000   0.000000   0.000000
    45  H    0.000000   0.000000   0.000000   0.000000   0.000000   0.000000
    46  H    0.000000   0.000000   0.000000   0.000000   0.000000   0.000000
    47  H    0.000000   0.000000   0.000000   0.000000   0.000000   0.000000
    48  H    0.000000   0.000000   0.000000   0.000000   0.000000   0.000000
              31         32         33         34         35         36
     1  H    0.000000   0.000000   0.000000   0.000000   0.000000   0.000000
     2  H    0.000000   0.000000   0.000000   0.000000   0.000000   0.000000
     3  H    0.000000   0.000000   0.000000   0.000000   0.000000   0.000000
     4  H    0.000000   0.000000   0.000000   0.000000   0.000000   0.000000
     5  H    0.000000   0.000000   0.000000   0.000000   0.000000   0.000000
     6  H    0.000000   0.000000   0.000000   0.000000   0.000000   0.000000
     7  H    0.000000   0.000000   0.000000   0.000000   0.000000   0.000000
     8  H    0.000000   0.000000   0.000000   0.000000   0.000000   0.000000
     9  H    0.000000   0.000000   0.000000   0.000000   0.000000   0.000000
    10  H    0.000000   0.000000   0.000000   0.000000   0.000000   0.000000
    11  H    0.000000   0.000000   0.000000   0.000000   0.000000   0.000000
    12  H    0.000000   0.000000   0.000000   0.000000   0.000000   0.000000
    13  H    0.000000   0.000000   0.000000   0.000000   0.000000   0.000000
    14  H    0.000000   0.000000   0.000000   0.000000   0.000000   0.000000
    15  H    0.000000   0.000000   0.000000   0.000000   0.000000   0.000000
    16  H    0.000000   0.000000   0.000000   0.000000   0.000000   0.000000
    17  H    0.000000   0.000000   0.000000   0.000000   0.000000   0.000000
    18  H    0.000000   0.000000   0.000000   0.000000   0.000000   0.000000
    19  H    0.000000   0.000000   0.000000   0.000000   0.000000   0.000000
    20  H    0.000000   0.000000   0.000000   0.000000   0.000000   0.000000
    21  H   -0.000000   0.000000   0.000000   0.000000   0.000000   0.000000
    22  H    0.000000  -0.000000   0.000000   0.000000   0.000000   0.000000
    23  H    0.000000   0.000000  -0.000000   0.000000   0.000000   0.000000
    24  H   -0.000000   0.000000   0.000000  -0.000000   0.000000   0.000000
    25  H   -0.000000  -0.000000   0.000000   0.000000  -0.000000   0.000000
    26  H    0.000007  -0.000000  -0.000000   0.000000   0.000000  -0.000000
    27  H    0.000100   0.000024  -0.000000  -0.000000   0.000000   0.000000
    28  H   -0.002165   0.000102   0.000007  -0.000000  -0.000000   0.000000
    29  H   -0.019511  -0.005997   0.000099   0.000024  -0.000000  -0.000000
    30  H    0.101720  -0.019769  -0.002153   0.000103   0.000007  -0.000000
    31  H    0.689239   0.254624  -0.019460  -0.006008   0.000098   0.000024
    32  H    0.254624   0.692243   0.101200  -0.019823  -0.002135   0.000103
    33  H   -0.019460   0.101200   0.688715   0.255223  -0.019400  -0.006024
    34  H   -0.006008  -0.019823   0.255223   0.692833   0.100401  -0.019889
    35  H    0.000098  -0.002135  -0.019400   0.100401   0.688083   0.256136
    36  H    0.000024   0.000103  -0.006024  -0.019889   0.256136   0.693580
    37  H   -0.000000   0.000007   0.000098  -0.002108  -0.019326   0.099184
    38  H   -0.000000  -0.000000   0.000024   0.000104  -0.006050  -0.019975
    39  H    0.000000  -0.000000  -0.000000   0.000007   0.000097  -0.002066
    40  H    0.000000   0.000000  -0.000000  -0.000000   0.000024   0.000105
    41  H   -0.000000   0.000000   0.000000  -0.000000  -0.000000   0.000006
    42  H    0.000000  -0.000000   0.000000   0.000000  -0.000000  -0.000000
    43  H    0.000000   0.000000  -0.000000   0.000000   0.000000  -0.000000
    44  H    0.000000   0.000000   0.000000  -0.000000   0.000000   0.000000
    45  H    0.000000   0.000000   0.000000   0.000000  -0.000000   0.000000
    46  H    0.000000   0.000000   0.000000   0.000000   0.000000  -0.000000
    47  H    0.000000   0.000000   0.000000   0.000000   0.000000   0.000000
    48  H    0.000000   0.000000   0.000000   0.000000   0.000000   0.000000
              37         38         39         40         41         42
     1  H    0.000000   0.000000   0.000000   0.000000   0.000000   0.000000
     2  H    0.000000   0.000000   0.000000   0.000000   0.000000   0.000000
     3  H    0.000000   0.000000   0.000000   0.000000   0.000000   0.000000
     4  H    0.000000   0.000000   0.000000   0.000000   0.000000   0.000000
     5  H    0.000000   0.000000   0.000000   0.000000   0.000000   0.000000
     6  H    0.000000   0.000000   0.000000   0.000000   0.000000   0.000000
     7  H    0.000000   0.000000   0.000000   0.000000   0.000000   0.000000
     8  H    0.000000   0.000000   0.000000   0.000000   0.000000   0.000000
     9  H    0.000000   0.000000   0.000000   0.000000   0.000000   0.000000
    10  H    0.000000   0.000000   0.000000   0.000000   0.000000   0.000000
    11  H    0.000000   0.000000   0.000000   0.000000   0.000000   0.000000
    12  H    0.000000   0.000000   0.000000   0.000000   0.000000   0.000000
    13  H    0.000000   0.000000   0.000000   0.000000   0.000000   0.000000
    14  H    0.000000   0.000000   0.000000   0.000000   0.000000   0.000000
    15  H    0.000000   0.000000   0.000000   0.000000   0.000000   0.000000
    16  H    0.000000   0.000000   0.000000   0.000000   0.000000   0.000000
    17  H    0.000000   0.000000   0.000000   0.000000   0.000000   0.000000
    18  H    0.000000   0.000000   0.000000   0.000000   0.000000   0.000000
    19  H    0.000000   0.000000   0.000000   0.000000   0.000000   0.000000
    20  H    0.000000   0.000000   0.000000   0.000000   0.000000   0.000000
    21  H    0.000000   0.000000   0.000000   0.000000   0.000000   0.000000
    22  H    0.000000   0.000000   0.000000   0.000000   0.000000   0.000000
    23  H    0.000000   0.000000   0.000000   0.000000   0.000000   0.000000
    24  H    0.000000   0.000000   0.000000   0.000000   0.000000   0.000000
    25  H    0.000000   0.000000   0.000000   0.000000   0.000000   0.000000
    26  H    0.000000   0.000000   0.000000   0.000000   0.000000   0.000000
    27  H   -0.000000   0.000000   0.000000   0.000000   0.000000   0.000000
    28  H    0.000000  -0.000000   0.000000   0.000000   0.000000   0.000000
    29  H    0.000000   0.000000  -0.000000   0.000000   0.000000   0.000000
    30  H   -0.000000   0.000000   0.000000  -0.000000   0.000000   0.000000
    31  H   -0.000000  -0.000000   0.000000   0.000000  -0.000000   0.000000
    32  H    0.000007  -0.000000  -0.000000   0.000000   0.000000  -0.000000
    33  H    0.000098   0.000024  -0.000000  -0.000000   0.000000   0.000000
    34  H   -0.002108   0.000104   0.000007  -0.000000  -0.000000   0.000000
    35  H   -0.019326  -0.006050   0.000097   0.000024  -0.000000  -0.000000
    36  H    0.099184  -0.019975  -0.002066   0.000105   0.000006  -0.000000
    37  H    0.687267   0.257535  -0.019226  -0.006089   0.000095   0.000024
    38  H    0.257535   0.694602   0.097297  -0.020097  -0.002000   0.000107
    39  H   -0.019226   0.097297   0.686121   0.259735  -0.019078  -0.006151
    40  H   -0.006089  -0.020097   0.259735   0.696134   0.094271  -0.020291
    41  H    0.000095  -0.002000  -0.019078   0.094271   0.684311   0.263352
    42  H    0.000024   0.000107  -0.006151  -0.020291   0.263352   0.698723
    43  H   -0.000000   0.000006   0.000093  -0.001892  -0.018827   0.089126
    44  H   -0.000000  -0.000000   0.000024   0.000110  -0.006257  -0.020643
    45  H    0.000000  -0.000000  -0.000000   0.000005   0.000088  -0.001699
    46  H    0.000000   0.000000  -0.000000  -0.000000   0.000025   0.000115
    47  H   -0.000000   0.000000   0.000000  -0.000000  -0.000000   0.000004
    48  H    0.000000  -0.000000   0.000000   0.000000  -0.000000  -0.000000
              43         44         45         46         47         48
     1  H    0.000000   0.000000   0.000000   0.000000   0.000000   0.000000
     2  H    0.000000   0.000000   0.000000   0.000000   0.000000   0.000000
     3  H    0.000000   0.000000   0.000000   0.000000   0.000000   0.000000
     4  H    0.000000   0.000000   0.000000   0.000000   0.000000   0.000000
     5  H    0.000000   0.000000   0.000000   0.000000   0.000000   0.000000
     6  H    0.000000   0.000000   0.000000   0.000000   0.000000   0.000000
     7  H    0.000000   0.000000   0.000000   0.000000   0.000000   0.000000
     8  H    0.000000   0.000000   0.000000   0.000000   0.000000   0.000000
     9  H    0.000000   0.000000   0.000000   0.000000   0.000000   0.000000
    10  H    0.000000   0.000000   0.000000   0.000000   0.000000   0.000000
    11  H    0.000000   0.000000   0.000000   0.000000   0.000000   0.000000
    12  H    0.000000   0.000000   0.000000   0.000000   0.000000   0.000000
    13  H    0.000000   0.000000   0.000000   0.000000   0.000000   0.000000
    14  H    0.000000   0.000000   0.000000   0.000000   0.000000   0.000000
    15  H    0.000000   0.000000   0.000000   0.000000   0.000000   0.000000
    16  H    0.000000   0.000000   0.000000   0.000000   0.000000   0.000000
    17  H    0.000000   0.000000   0.000000   0.000000   0.000000   0.000000
    18  H    0.000000   0.000000   0.000000   0.000000   0.000000   0.000000
    19  H    0.000000   0.000000   0.000000   0.000000   0.000000   0.000000
    20  H    0.000000   0.000000   0.000000   0.000000   0.000000   0.000000
    21  H    0.000000   0.000000   0.000000   0.000000   0.000000   0.000000
    22  H    0.000000   0.000000   0.000000   0.000000   0.000000   0.000000
    23  H    0.000000   0.000000   0.000000   0.000000   0.000000   0.000000
    24  H    0.000000   0.000000   0.000000   0.000000   0.000000   0.000000
    25  H    0.000000   0.000000   0.000000   0.000000   0.000000   0.000000
    26  H    0.000000   0.000000   0.000000   0.000000   0.000000   0.000000
    27  H    0.000000   0.000000   0.000000   0.000000   0.000000   0.000000
    28  H    0.000000   0.000000   0.000000   0.000000   0.000000   0.000000
    29  H    0.000000   0.000000   0.000000   0.000000   0.000000   0.000000
    30  H    0.000000   0.000000   0.000000   0.000000   0.000000   0.000000
    31  H    0.000000   0.000000   0.000000   0.000000   0.000000   0.000000
    32  H    0.000000   0.000000   0.000000   0.000000   0.000000   0.000000
    33  H   -0.000000   0.000000   0.000000   0.000000   0.000000   0.000000
    34  H    0.000000  -0.000000   0.000000   0.000000   0.000000   0.000000
    35  H    0.000000   0.000000  -0.000000   0.000000   0.000000   0.000000
    36  H   -0.000000   0.000000   0.000000  -0.000000   0.000000   0.000000
    37  H   -0.000000  -0.000000   0.000000   0.000000  -0.000000   0.000000
    38  H    0.000006  -0.000000  -0.000000   0.000000   0.000000  -0.000000
    39  H    0.000093   0.000024  -0.000000  -0.000000   0.000000   0.000000
    40  H   -0.001892   0.000110   0.000005  -0.000000  -0.000000   0.000000
    41  H   -0.018827  -0.006257   0.000088   0.000025  -0.000000  -0.000000
    42  H    0.089126  -0.020643  -0.001699   0.000115   0.000004  -0.000000
    43  H    0.680928   0.269760  -0.018299  -0.006452   0.000077   0.000025
    44  H    0.269760   0.703946   0.079470  -0.021439  -0.001310   0.000132
    45  H   -0.018299   0.079470   0.672665   0.282616  -0.016730  -0.006748
    46  H   -0.006452  -0.021439   0.282616   0.717873   0.057957  -0.024069
    47  H    0.000077  -0.001310  -0.016730   0.057957   0.642124   0.306993
    48  H    0.000025   0.000132  -0.006748  -0.024069   0.306993   0.746209
 Mulliken charges:
               1
     1  H   -0.022541
     2  H    0.010886
     3  H   -0.006627
     4  H    0.008632
     5  H   -0.003793
     6  H    0.005455
     7  H   -0.002667
     8  H    0.004013
     9  H   -0.002015
    10  H    0.003148
    11  H   -0.001553
    12  H    0.002539
    13  H   -0.001184
    14  H    0.002066
    15  H   -0.000867
    16  H    0.001673
    17  H   -0.000579
    18  H    0.001331
    19  H   -0.000310
    20  H    0.001024
    21  H   -0.000049
    22  H    0.000739
    23  H    0.000209
    24  H    0.000470
    25  H    0.000470
    26  H    0.000209
    27  H    0.000739
    28  H   -0.000049
    29  H    0.001024
    30  H   -0.000310
    31  H    0.001331
    32  H   -0.000579
    33  H    0.001673
    34  H   -0.000867
    35  H    0.002066
    36  H   -0.001184
    37  H    0.002539
    38  H   -0.001553
    39  H    0.003148
    40  H   -0.002015
    41  H    0.004013
    42  H   -0.002667
    43  H    0.005455
    44  H   -0.003793
    45  H    0.008632
    46  H   -0.006627
    47  H    0.010886
    48  H   -0.022541
 Sum of Mulliken charges =  -0.00000
 Mulliken charges with hydrogens summed into heavy atoms:
               1
 Electronic spatial extent (au):  <R**2>=         127690.0076
 Charge=             -0.0000 electrons
 Dipole moment (field-independent basis, Debye):
    X=              0.0000    Y=              0.0000    Z=              0.0000  Tot=              0.0000
 Quadrupole moment (field-independent basis, Debye-Ang):
   XX=            -44.1725   YY=            -44.1725   ZZ=            -88.6238
   XY=              0.0000   XZ=              0.0000   YZ=              0.0000
 Traceless Quadrupole moment (field-independent basis, Debye-Ang):
   XX=             14.8171   YY=             14.8171   ZZ=            -29.6342
   XY=              0.0000   XZ=              0.0000   YZ=              0.0000
 Octapole moment (field-independent basis, Debye-Ang**2):
  XXX=              0.0000  YYY=              0.0000  ZZZ=          -6247.9794  XYY=              0.0000
  XXY=              0.0000  XXZ=          -1038.0540  XZZ=              0.0000  YZZ=              0.0000
  YYZ=          -1038.0540  XYZ=              0.0000
 Hexadecapole moment (field-independent basis, Debye-Ang**3):
 XXXX=            -36.4183 YYYY=            -36.4183 ZZZZ=        -373785.6875 XXXY=              0.0000
 XXXZ=              0.0000 YYYX=              0.0000 YYYZ=              0.0000 ZZZX=              0.0000
 ZZZY=              0.0000 XXYY=            -12.1394 XXZZ=         -32901.2701 YYZZ=         -32901.2701
 XXYZ=              0.0000 YYXZ=              0.0000 ZZXY=              0.0000
 N-N= 8.785519882744D+01 E-N=-2.301223027968D+02  KE= 2.932024497127D+01
 No NMR shielding tensors so no spin-rotation constants.
 Leave Link  601 at Mon Dec  6 11:57:55 2021, MaxMem=   104857600 cpu:               0.1 elap:               0.1
 (Enter /usr/local/g16reva03/legacy_cpu/g16/l9999.exe)
 1\1\GINC-USER1\SP\RHF\STO-3G\H48\AMKINY01\06-Dec-2021\0\\#P rhf nosymm
  output=matrix int=noraf scf=conven\\Hydrogen_Molecule\\0,1\H\H,1,1.\H
 ,2,1.,1,180.\H,3,1.,2,180.,1,0.,0\H,4,1.,3,180.,1,0.,0\H,5,1.,4,180.,1
 ,0.,0\H,6,1.,5,180.,1,0.,0\H,7,1.,6,180.,1,0.,0\H,8,1.,7,180.,1,0.,0\H
 ,9,1.,8,180.,1,0.,0\H,10,1.,9,180.,1,0.,0\H,11,1.,10,180.,1,0.,0\H,12,
 1.,11,180.,1,0.,0\H,13,1.,12,180.,1,0.,0\H,14,1.,13,180.,1,0.,0\H,15,1
 .,14,180.,1,0.,0\H,16,1.,15,180.,1,0.,0\H,17,1.,16,180.,1,0.,0\H,18,1.
 ,17,180.,1,0.,0\H,19,1.,18,180.,1,0.,0\H,20,1.,19,180.,1,0.,0\H,21,1.,
 20,180.,1,0.,0\H,22,1.,21,180.,1,0.,0\H,23,1.,22,180.,1,0.,0\H,24,1.,2
 3,180.,1,0.,0\H,25,1.,24,180.,1,0.,0\H,26,1.,25,180.,1,0.,0\H,27,1.,26
 ,180.,1,0.,0\H,28,1.,27,180.,1,0.,0\H,29,1.,28,180.,1,0.,0\H,30,1.,29,
 180.,1,0.,0\H,31,1.,30,180.,1,0.,0\H,32,1.,31,180.,1,0.,0\H,33,1.,32,1
 80.,1,0.,0\H,34,1.,33,180.,1,0.,0\H,35,1.,34,180.,1,0.,0\H,36,1.,35,18
 0.,1,0.,0\H,37,1.,36,180.,1,0.,0\H,38,1.,37,180.,1,0.,0\H,39,1.,38,180
 .,1,0.,0\H,40,1.,39,180.,1,0.,0\H,41,1.,40,180.,1,0.,0\H,42,1.,41,180.
 ,1,0.,0\H,43,1.,42,180.,1,0.,0\H,44,1.,43,180.,1,0.,0\H,45,1.,44,180.,
 1,0.,0\H,46,1.,45,180.,1,0.,0\H,47,1.,46,180.,1,0.,0\\Version=EM64L-G1
 6RevA.03\HF=-24.9880314\RMSD=5.205e-09\Dipole=0.,0.,0.\Quadrupole=11.0
 161533,11.0161533,-22.0323066,0.,0.,0.\PG=D*H [C*(H1H1H1H1H1H1H1H1H1H1
 H1H1H1H1H1H1H1H1H1H1H1H1H1H1.H1H1H1H1H1H1H1H1H1H1H1H1H1H1H1H1H1H1H1H1H
 1H1H1H1)]\\@


 QED = W**5 (WHICH WAS WHAT WE WANTED)

 Writing WrtUnf unformatted file "h48_1_Ang.mat"
 Gaussian matrix elements                                         Version   2 NLab=11 Len12L=8 Len4L=8
 Write SHELL TO ATOM MAP                   from file     0 offset           0 length                  48 to matrix element file.
 Write SHELL TYPES                         from file     0 offset           0 length                  48 to matrix element file.
 Write NUMBER OF PRIMITIVES PER SHELL      from file     0 offset           0 length                  48 to matrix element file.
 Write PRIMITIVE EXPONENTS                 from file     0 offset           0 length                 144 to matrix element file.
 Write CONTRACTION COEFFICIENTS            from file     0 offset           0 length                 144 to matrix element file.
 Write P(S=P) CONTRACTION COEFFICIENTS     from file     0 offset           0 length                 144 to matrix element file.
 Write COORDINATES OF EACH SHELL           from file     0 offset           0 length                 144 to matrix element file.
 Write GAUSSIAN SCALARS                    from file   501 offset           0 to matrix element file.
 Write INTEGER ISO                         from file     0 offset           0 length                  48 to matrix element file.
 Write INTEGER SPIN                        from file     0 offset           0 length                  48 to matrix element file.
 Write REAL ZEFFECTIVE                     from file     0 offset           0 length                  48 to matrix element file.
 Write REAL GFACTOR                        from file     0 offset           0 length                  48 to matrix element file.
 Write REAL ZNUCLEAR                       from file     0 offset           0 length                  48 to matrix element file.
 Write NUCLEAR GRADIENT                    from file 10584 offset           0 length                 144 to matrix element file.
 Array NUCLEAR FORCE CONSTANTS              on  file 10585 does not exist.
 Write ELECTRIC DIPOLE MOMENT              from file     0 offset           0 length                   3 to matrix element file.
 Write OVERLAP                             from file   514 offset           0 length                1176 to matrix element file.
 Write CORE HAMILTONIAN ALPHA              from file   515 offset           0 length                1176 to matrix element file.
 Write CORE HAMILTONIAN BETA               from file   515 offset        1176 length                1176 to matrix element file.
 Write KINETIC ENERGY                      from file   516 offset           0 length                1176 to matrix element file.
 Write ORTHOGONAL BASIS                    from file   685 offset           0 length                2304 to matrix element file.
 Write DIPOLE INTEGRALS                    from file   518 offset           0 length                3528 to matrix element file.
 Write DIP VEL INTEGRALS                   from file   572 offset           0 length                3528 to matrix element file.
 Write R X DEL INTEGRALS                   from file   572 offset        3528 length                3528 to matrix element file.
 Write ALPHA ORBITAL ENERGIES              from file     0 offset           0 length                  48 to matrix element file.
 Write ALPHA MO COEFFICIENTS               from file 10524 offset           0 length                2304 to matrix element file.
 Write ALPHA DENSITY MATRIX                from file 10528 offset           0 length                1176 to matrix element file.
 Write ALPHA SCF DENSITY MATRIX            from file 10528 offset           0 length                1176 to matrix element file.
 Write ALPHA FOCK MATRIX                   from file 10536 offset           0 length                1176 to matrix element file.
 Write REGULAR 2E INTEGRALS                to matrix element file, NR=1 ITotal=       54057.
 Job cpu time:       0 days  0 hours  0 minutes  7.9 seconds.
 Elapsed time:       0 days  0 hours  0 minutes  8.1 seconds.
 File lengths (MBytes):  RWF=     72 Int=      4 D2E=      0 Chk=      8 Scr=      8
 Normal termination of Gaussian 16 at Mon Dec  6 11:57:56 2021.
