 Entering Gaussian System, Link 0=g16
 Input=h4_1A.com
 Output=h4_1A.log
 Initial command:
 /usr/local/g16reva03/legacy_cpu/g16/l1.exe "/scratch/global/g16/Gau-32116.inp" -scrdir="/scratch/global/g16/"
 Entering Link 1 = /usr/local/g16reva03/legacy_cpu/g16/l1.exe PID=     32117.
  
 Copyright (c) 1988,1990,1992,1993,1995,1998,2003,2009,2016,
            Gaussian, Inc.  All Rights Reserved.
  
 This is part of the Gaussian(R) 16 program.  It is based on
 the Gaussian(R) 09 system (copyright 2009, Gaussian, Inc.),
 the Gaussian(R) 03 system (copyright 2003, Gaussian, Inc.),
 the Gaussian(R) 98 system (copyright 1998, Gaussian, Inc.),
 the Gaussian(R) 94 system (copyright 1995, Gaussian, Inc.),
 the Gaussian 92(TM) system (copyright 1992, Gaussian, Inc.),
 the Gaussian 90(TM) system (copyright 1990, Gaussian, Inc.),
 the Gaussian 88(TM) system (copyright 1988, Gaussian, Inc.),
 the Gaussian 86(TM) system (copyright 1986, Carnegie Mellon
 University), and the Gaussian 82(TM) system (copyright 1983,
 Carnegie Mellon University). Gaussian is a federally registered
 trademark of Gaussian, Inc.
  
 This software contains proprietary and confidential information,
 including trade secrets, belonging to Gaussian, Inc.
  
 This software is provided under written license and may be
 used, copied, transmitted, or stored only in accord with that
 written license.
  
 The following legend is applicable only to US Government
 contracts under FAR:
  
                    RESTRICTED RIGHTS LEGEND
  
 Use, reproduction and disclosure by the US Government is
 subject to restrictions as set forth in subparagraphs (a)
 and (c) of the Commercial Computer Software - Restricted
 Rights clause in FAR 52.227-19.
  
 Gaussian, Inc.
 340 Quinnipiac St., Bldg. 40, Wallingford CT 06492
  
  
 ---------------------------------------------------------------
 Warning -- This program may not be used in any manner that
 competes with the business of Gaussian, Inc. or will provide
 assistance to any competitor of Gaussian, Inc.  The licensee
 of this program is prohibited from giving any competitor of
 Gaussian, Inc. access to this program.  By using this program,
 the user acknowledges that Gaussian, Inc. is engaged in the
 business of creating and licensing software in the field of
 computational chemistry and represents and warrants to the
 licensee that it is not a competitor of Gaussian, Inc. and that
 it will not use this program in any manner prohibited above.
 ---------------------------------------------------------------
  

 Cite this work as:
 Gaussian 16, Revision A.03,
 M. J. Frisch, G. W. Trucks, H. B. Schlegel, G. E. Scuseria, 
 M. A. Robb, J. R. Cheeseman, G. Scalmani, V. Barone, 
 G. A. Petersson, H. Nakatsuji, X. Li, M. Caricato, A. V. Marenich, 
 J. Bloino, B. G. Janesko, R. Gomperts, B. Mennucci, H. P. Hratchian, 
 J. V. Ortiz, A. F. Izmaylov, J. L. Sonnenberg, D. Williams-Young, 
 F. Ding, F. Lipparini, F. Egidi, J. Goings, B. Peng, A. Petrone, 
 T. Henderson, D. Ranasinghe, V. G. Zakrzewski, J. Gao, N. Rega, 
 G. Zheng, W. Liang, M. Hada, M. Ehara, K. Toyota, R. Fukuda, 
 J. Hasegawa, M. Ishida, T. Nakajima, Y. Honda, O. Kitao, H. Nakai, 
 T. Vreven, K. Throssell, J. A. Montgomery, Jr., J. E. Peralta, 
 F. Ogliaro, M. J. Bearpark, J. J. Heyd, E. N. Brothers, K. N. Kudin, 
 V. N. Staroverov, T. A. Keith, R. Kobayashi, J. Normand, 
 K. Raghavachari, A. P. Rendell, J. C. Burant, S. S. Iyengar, 
 J. Tomasi, M. Cossi, J. M. Millam, M. Klene, C. Adamo, R. Cammi, 
 J. W. Ochterski, R. L. Martin, K. Morokuma, O. Farkas, 
 J. B. Foresman, and D. J. Fox, Gaussian, Inc., Wallingford CT, 2016.
 
 ******************************************
 Gaussian 16:  EM64L-G16RevA.03 25-Dec-2016
                 3-Dec-2021 
 ******************************************
 %chk=h4.chk
 ----------------------------------
 #P rhf/sto-3g nosymm output=matrix
 ----------------------------------
 1/38=1,172=1/1;
 2/12=2,15=1,17=6,18=5,40=1/2;
 3/6=3,11=1,25=1,30=1,116=1/1,2,3,8;
 4//1;
 5/5=2,38=5/2;
 6/7=2,8=2,9=2,10=2,28=1/1;
 99/5=1,6=100000,9=1/99;
 Leave Link    1 at Fri Dec  3 20:46:25 2021, MaxMem=           0 cpu:               0.1 elap:               0.2
 (Enter /usr/local/g16reva03/legacy_cpu/g16/l101.exe)
 ----
 Test
 ----
 Symbolic Z-matrix:
 Charge =  0 Multiplicity = 1
 H                     1.        0.        0. 
 H                     2.        0.        0. 
 H                     3.        0.        0. 
 H                     4.        0.        0. 
 H                     5.        0.        0. 
 H                     6.        0.        0. 
 H                     7.        0.        0. 
 H                     8.        0.        0. 
 H                     9.        0.        0. 
 H                     10.       0.        0. 
 H                     11.       0.        0. 
 H                     12.       0.        0. 
 H                     13.       0.        0. 
 H                     14.       0.        0. 
 H                     15.       0.        0. 
 H                     16.       0.        0. 
 H                     17.       0.        0. 
 H                     18.       0.        0. 
 H                     19.       0.        0. 
 H                     20.       0.        0. 
 H                     21.       0.        0. 
 H                     22.       0.        0. 
 H                     23.       0.        0. 
 H                     24.       0.        0. 
 H                     25.       0.        0. 
 H                     26.       0.        0. 
 H                     27.       0.        0. 
 H                     28.       0.        0. 
 H                     29.       0.        0. 
 H                     30.       0.        0. 
 H                     31.       0.        0. 
 H                     32.       0.        0. 
 
 ITRead=  0  0  0  0  0  0  0  0  0  0  0  0  0  0  0  0  0  0  0  0
 ITRead=  0  0  0  0  0  0  0  0  0  0  0  0
 MicOpt= -1 -1 -1 -1 -1 -1 -1 -1 -1 -1 -1 -1 -1 -1 -1 -1 -1 -1 -1 -1
 MicOpt= -1 -1 -1 -1 -1 -1 -1 -1 -1 -1 -1 -1
 NAtoms=     32 NQM=       32 NQMF=       0 NMMI=      0 NMMIF=      0
                NMic=       0 NMicF=      0.
                    Isotopes and Nuclear Properties:
 (Nuclear quadrupole moments (NQMom) in fm**2, nuclear magnetic moments (NMagM)
  in nuclear magnetons)

  Atom         1           2           3           4           5           6           7           8           9          10
 IAtWgt=           1           1           1           1           1           1           1           1           1           1
 AtmWgt=   1.0078250   1.0078250   1.0078250   1.0078250   1.0078250   1.0078250   1.0078250   1.0078250   1.0078250   1.0078250
 NucSpn=           1           1           1           1           1           1           1           1           1           1
 AtZEff=  -0.0000000  -0.0000000  -0.0000000  -0.0000000  -0.0000000  -0.0000000  -0.0000000  -0.0000000  -0.0000000  -0.0000000
 NQMom=    0.0000000   0.0000000   0.0000000   0.0000000   0.0000000   0.0000000   0.0000000   0.0000000   0.0000000   0.0000000
 NMagM=    2.7928460   2.7928460   2.7928460   2.7928460   2.7928460   2.7928460   2.7928460   2.7928460   2.7928460   2.7928460
 AtZNuc=   1.0000000   1.0000000   1.0000000   1.0000000   1.0000000   1.0000000   1.0000000   1.0000000   1.0000000   1.0000000

  Atom        11          12          13          14          15          16          17          18          19          20
 IAtWgt=           1           1           1           1           1           1           1           1           1           1
 AtmWgt=   1.0078250   1.0078250   1.0078250   1.0078250   1.0078250   1.0078250   1.0078250   1.0078250   1.0078250   1.0078250
 NucSpn=           1           1           1           1           1           1           1           1           1           1
 AtZEff=  -0.0000000  -0.0000000  -0.0000000  -0.0000000  -0.0000000  -0.0000000  -0.0000000  -0.0000000  -0.0000000  -0.0000000
 NQMom=    0.0000000   0.0000000   0.0000000   0.0000000   0.0000000   0.0000000   0.0000000   0.0000000   0.0000000   0.0000000
 NMagM=    2.7928460   2.7928460   2.7928460   2.7928460   2.7928460   2.7928460   2.7928460   2.7928460   2.7928460   2.7928460
 AtZNuc=   1.0000000   1.0000000   1.0000000   1.0000000   1.0000000   1.0000000   1.0000000   1.0000000   1.0000000   1.0000000

  Atom        21          22          23          24          25          26          27          28          29          30
 IAtWgt=           1           1           1           1           1           1           1           1           1           1
 AtmWgt=   1.0078250   1.0078250   1.0078250   1.0078250   1.0078250   1.0078250   1.0078250   1.0078250   1.0078250   1.0078250
 NucSpn=           1           1           1           1           1           1           1           1           1           1
 AtZEff=  -0.0000000  -0.0000000  -0.0000000  -0.0000000  -0.0000000  -0.0000000  -0.0000000  -0.0000000  -0.0000000  -0.0000000
 NQMom=    0.0000000   0.0000000   0.0000000   0.0000000   0.0000000   0.0000000   0.0000000   0.0000000   0.0000000   0.0000000
 NMagM=    2.7928460   2.7928460   2.7928460   2.7928460   2.7928460   2.7928460   2.7928460   2.7928460   2.7928460   2.7928460
 AtZNuc=   1.0000000   1.0000000   1.0000000   1.0000000   1.0000000   1.0000000   1.0000000   1.0000000   1.0000000   1.0000000

  Atom        31          32
 IAtWgt=           1           1
 AtmWgt=   1.0078250   1.0078250
 NucSpn=           1           1
 AtZEff=  -0.0000000  -0.0000000
 NQMom=    0.0000000   0.0000000
 NMagM=    2.7928460   2.7928460
 AtZNuc=   1.0000000   1.0000000
 Leave Link  101 at Fri Dec  3 20:46:25 2021, MaxMem=   104857600 cpu:               0.2 elap:               0.2
 (Enter /usr/local/g16reva03/legacy_cpu/g16/l202.exe)
                          Input orientation:                          
 ---------------------------------------------------------------------
 Center     Atomic      Atomic             Coordinates (Angstroms)
 Number     Number       Type             X           Y           Z
 ---------------------------------------------------------------------
      1          1           0        1.000000    0.000000    0.000000
      2          1           0        2.000000    0.000000    0.000000
      3          1           0        3.000000    0.000000    0.000000
      4          1           0        4.000000    0.000000    0.000000
      5          1           0        5.000000    0.000000    0.000000
      6          1           0        6.000000    0.000000    0.000000
      7          1           0        7.000000    0.000000    0.000000
      8          1           0        8.000000    0.000000    0.000000
      9          1           0        9.000000    0.000000    0.000000
     10          1           0       10.000000    0.000000    0.000000
     11          1           0       11.000000    0.000000    0.000000
     12          1           0       12.000000    0.000000    0.000000
     13          1           0       13.000000    0.000000    0.000000
     14          1           0       14.000000    0.000000    0.000000
     15          1           0       15.000000    0.000000    0.000000
     16          1           0       16.000000    0.000000    0.000000
     17          1           0       17.000000    0.000000    0.000000
     18          1           0       18.000000    0.000000    0.000000
     19          1           0       19.000000    0.000000    0.000000
     20          1           0       20.000000    0.000000    0.000000
     21          1           0       21.000000    0.000000    0.000000
     22          1           0       22.000000    0.000000    0.000000
     23          1           0       23.000000    0.000000    0.000000
     24          1           0       24.000000    0.000000    0.000000
     25          1           0       25.000000    0.000000    0.000000
     26          1           0       26.000000    0.000000    0.000000
     27          1           0       27.000000    0.000000    0.000000
     28          1           0       28.000000    0.000000    0.000000
     29          1           0       29.000000    0.000000    0.000000
     30          1           0       30.000000    0.000000    0.000000
     31          1           0       31.000000    0.000000    0.000000
     32          1           0       32.000000    0.000000    0.000000
 ---------------------------------------------------------------------
                    Distance matrix (angstroms):
                    1          2          3          4          5
     1  H    0.000000
     2  H    1.000000   0.000000
     3  H    2.000000   1.000000   0.000000
     4  H    3.000000   2.000000   1.000000   0.000000
     5  H    4.000000   3.000000   2.000000   1.000000   0.000000
     6  H    5.000000   4.000000   3.000000   2.000000   1.000000
     7  H    6.000000   5.000000   4.000000   3.000000   2.000000
     8  H    7.000000   6.000000   5.000000   4.000000   3.000000
     9  H    8.000000   7.000000   6.000000   5.000000   4.000000
    10  H    9.000000   8.000000   7.000000   6.000000   5.000000
    11  H   10.000000   9.000000   8.000000   7.000000   6.000000
    12  H   11.000000  10.000000   9.000000   8.000000   7.000000
    13  H   12.000000  11.000000  10.000000   9.000000   8.000000
    14  H   13.000000  12.000000  11.000000  10.000000   9.000000
    15  H   14.000000  13.000000  12.000000  11.000000  10.000000
    16  H   15.000000  14.000000  13.000000  12.000000  11.000000
    17  H   16.000000  15.000000  14.000000  13.000000  12.000000
    18  H   17.000000  16.000000  15.000000  14.000000  13.000000
    19  H   18.000000  17.000000  16.000000  15.000000  14.000000
    20  H   19.000000  18.000000  17.000000  16.000000  15.000000
    21  H   20.000000  19.000000  18.000000  17.000000  16.000000
    22  H   21.000000  20.000000  19.000000  18.000000  17.000000
    23  H   22.000000  21.000000  20.000000  19.000000  18.000000
    24  H   23.000000  22.000000  21.000000  20.000000  19.000000
    25  H   24.000000  23.000000  22.000000  21.000000  20.000000
    26  H   25.000000  24.000000  23.000000  22.000000  21.000000
    27  H   26.000000  25.000000  24.000000  23.000000  22.000000
    28  H   27.000000  26.000000  25.000000  24.000000  23.000000
    29  H   28.000000  27.000000  26.000000  25.000000  24.000000
    30  H   29.000000  28.000000  27.000000  26.000000  25.000000
    31  H   30.000000  29.000000  28.000000  27.000000  26.000000
    32  H   31.000000  30.000000  29.000000  28.000000  27.000000
                    6          7          8          9         10
     6  H    0.000000
     7  H    1.000000   0.000000
     8  H    2.000000   1.000000   0.000000
     9  H    3.000000   2.000000   1.000000   0.000000
    10  H    4.000000   3.000000   2.000000   1.000000   0.000000
    11  H    5.000000   4.000000   3.000000   2.000000   1.000000
    12  H    6.000000   5.000000   4.000000   3.000000   2.000000
    13  H    7.000000   6.000000   5.000000   4.000000   3.000000
    14  H    8.000000   7.000000   6.000000   5.000000   4.000000
    15  H    9.000000   8.000000   7.000000   6.000000   5.000000
    16  H   10.000000   9.000000   8.000000   7.000000   6.000000
    17  H   11.000000  10.000000   9.000000   8.000000   7.000000
    18  H   12.000000  11.000000  10.000000   9.000000   8.000000
    19  H   13.000000  12.000000  11.000000  10.000000   9.000000
    20  H   14.000000  13.000000  12.000000  11.000000  10.000000
    21  H   15.000000  14.000000  13.000000  12.000000  11.000000
    22  H   16.000000  15.000000  14.000000  13.000000  12.000000
    23  H   17.000000  16.000000  15.000000  14.000000  13.000000
    24  H   18.000000  17.000000  16.000000  15.000000  14.000000
    25  H   19.000000  18.000000  17.000000  16.000000  15.000000
    26  H   20.000000  19.000000  18.000000  17.000000  16.000000
    27  H   21.000000  20.000000  19.000000  18.000000  17.000000
    28  H   22.000000  21.000000  20.000000  19.000000  18.000000
    29  H   23.000000  22.000000  21.000000  20.000000  19.000000
    30  H   24.000000  23.000000  22.000000  21.000000  20.000000
    31  H   25.000000  24.000000  23.000000  22.000000  21.000000
    32  H   26.000000  25.000000  24.000000  23.000000  22.000000
                   11         12         13         14         15
    11  H    0.000000
    12  H    1.000000   0.000000
    13  H    2.000000   1.000000   0.000000
    14  H    3.000000   2.000000   1.000000   0.000000
    15  H    4.000000   3.000000   2.000000   1.000000   0.000000
    16  H    5.000000   4.000000   3.000000   2.000000   1.000000
    17  H    6.000000   5.000000   4.000000   3.000000   2.000000
    18  H    7.000000   6.000000   5.000000   4.000000   3.000000
    19  H    8.000000   7.000000   6.000000   5.000000   4.000000
    20  H    9.000000   8.000000   7.000000   6.000000   5.000000
    21  H   10.000000   9.000000   8.000000   7.000000   6.000000
    22  H   11.000000  10.000000   9.000000   8.000000   7.000000
    23  H   12.000000  11.000000  10.000000   9.000000   8.000000
    24  H   13.000000  12.000000  11.000000  10.000000   9.000000
    25  H   14.000000  13.000000  12.000000  11.000000  10.000000
    26  H   15.000000  14.000000  13.000000  12.000000  11.000000
    27  H   16.000000  15.000000  14.000000  13.000000  12.000000
    28  H   17.000000  16.000000  15.000000  14.000000  13.000000
    29  H   18.000000  17.000000  16.000000  15.000000  14.000000
    30  H   19.000000  18.000000  17.000000  16.000000  15.000000
    31  H   20.000000  19.000000  18.000000  17.000000  16.000000
    32  H   21.000000  20.000000  19.000000  18.000000  17.000000
                   16         17         18         19         20
    16  H    0.000000
    17  H    1.000000   0.000000
    18  H    2.000000   1.000000   0.000000
    19  H    3.000000   2.000000   1.000000   0.000000
    20  H    4.000000   3.000000   2.000000   1.000000   0.000000
    21  H    5.000000   4.000000   3.000000   2.000000   1.000000
    22  H    6.000000   5.000000   4.000000   3.000000   2.000000
    23  H    7.000000   6.000000   5.000000   4.000000   3.000000
    24  H    8.000000   7.000000   6.000000   5.000000   4.000000
    25  H    9.000000   8.000000   7.000000   6.000000   5.000000
    26  H   10.000000   9.000000   8.000000   7.000000   6.000000
    27  H   11.000000  10.000000   9.000000   8.000000   7.000000
    28  H   12.000000  11.000000  10.000000   9.000000   8.000000
    29  H   13.000000  12.000000  11.000000  10.000000   9.000000
    30  H   14.000000  13.000000  12.000000  11.000000  10.000000
    31  H   15.000000  14.000000  13.000000  12.000000  11.000000
    32  H   16.000000  15.000000  14.000000  13.000000  12.000000
                   21         22         23         24         25
    21  H    0.000000
    22  H    1.000000   0.000000
    23  H    2.000000   1.000000   0.000000
    24  H    3.000000   2.000000   1.000000   0.000000
    25  H    4.000000   3.000000   2.000000   1.000000   0.000000
    26  H    5.000000   4.000000   3.000000   2.000000   1.000000
    27  H    6.000000   5.000000   4.000000   3.000000   2.000000
    28  H    7.000000   6.000000   5.000000   4.000000   3.000000
    29  H    8.000000   7.000000   6.000000   5.000000   4.000000
    30  H    9.000000   8.000000   7.000000   6.000000   5.000000
    31  H   10.000000   9.000000   8.000000   7.000000   6.000000
    32  H   11.000000  10.000000   9.000000   8.000000   7.000000
                   26         27         28         29         30
    26  H    0.000000
    27  H    1.000000   0.000000
    28  H    2.000000   1.000000   0.000000
    29  H    3.000000   2.000000   1.000000   0.000000
    30  H    4.000000   3.000000   2.000000   1.000000   0.000000
    31  H    5.000000   4.000000   3.000000   2.000000   1.000000
    32  H    6.000000   5.000000   4.000000   3.000000   2.000000
                   31         32
    31  H    0.000000
    32  H    1.000000   0.000000
 Symmetry turned off by external request.
 Stoichiometry    H32
 Framework group  D*H[C*(HHHHHHHHHHHHHHHH.HHHHHHHHHHHHHHHH)]
 Deg. of freedom    16
 Full point group                 D*H     NOp   8
 Rotational constants (GHZ):           0.0000000           0.1838179           0.1838179
 Leave Link  202 at Fri Dec  3 20:46:25 2021, MaxMem=   104857600 cpu:               0.1 elap:               0.1
 (Enter /usr/local/g16reva03/legacy_cpu/g16/l301.exe)
 Standard basis: STO-3G (5D, 7F)
 Ernie: Thresh=  0.10000D-02 Tol=  0.10000D-05 Strict=F.
    32 basis functions,    96 primitive gaussians,    32 cartesian basis functions
    16 alpha electrons       16 beta electrons
       nuclear repulsion energy        51.7915506283 Hartrees.
 IExCor=    0 DFT=F Ex=HF Corr=None ExCW=0 ScaHFX=  1.000000
 ScaDFX=  1.000000  1.000000  1.000000  1.000000 ScalE2=  1.000000  1.000000
 IRadAn=      5 IRanWt=     -1 IRanGd=            0 ICorTp=0 IEmpDi=  4
 NAtoms=   32 NActive=   32 NUniq=   32 SFac= 1.00D+00 NAtFMM=   60 NAOKFM=F Big=F
 Integral buffers will be    131072 words long.
 Raffenetti 1 integral format.
 Two-electron integral symmetry is turned off.
 Leave Link  301 at Fri Dec  3 20:46:25 2021, MaxMem=   104857600 cpu:               0.1 elap:               0.1
 (Enter /usr/local/g16reva03/legacy_cpu/g16/l302.exe)
 NPDir=0 NMtPBC=     1 NCelOv=     1 NCel=       1 NClECP=     1 NCelD=      1
         NCelK=      1 NCelE2=     1 NClLst=     1 CellRange=     0.0.
 One-electron integrals computed using PRISM.
 NBasis=    32 RedAO= T EigKep=  2.14D-01  NBF=    32
 NBsUse=    32 1.00D-06 EigRej= -1.00D+00 NBFU=    32
 Leave Link  302 at Fri Dec  3 20:46:26 2021, MaxMem=   104857600 cpu:               0.1 elap:               0.2
 (Enter /usr/local/g16reva03/legacy_cpu/g16/l303.exe)
 DipDrv:  MaxL=1.
 Leave Link  303 at Fri Dec  3 20:46:26 2021, MaxMem=   104857600 cpu:               0.1 elap:               0.1
 (Enter /usr/local/g16reva03/legacy_cpu/g16/l308.exe)
 Leave Link  308 at Fri Dec  3 20:46:26 2021, MaxMem=   104857600 cpu:               0.1 elap:               0.1
 (Enter /usr/local/g16reva03/legacy_cpu/g16/l401.exe)
 ExpMin= 1.69D-01 ExpMax= 3.43D+00 ExpMxC= 3.43D+00 IAcc=3 IRadAn=         5 AccDes= 0.00D+00
 Harris functional with IExCor=  205 and IRadAn=       5 diagonalized for initial guess.
 HarFok:  IExCor=  205 AccDes= 0.00D+00 IRadAn=         5 IDoV= 1 UseB2=F ITyADJ=14
 ICtDFT=  3500011 ScaDFX=  1.000000  1.000000  1.000000  1.000000
 FoFCou: FMM=F IPFlag=           0 FMFlag=      100000 FMFlg1=           0
         NFxFlg=           0 DoJE=T BraDBF=F KetDBF=T FulRan=T
         wScrn=  0.000000 ICntrl=       500 IOpCl=  0 I1Cent=   200000004 NGrid=           0
         NMat0=    1 NMatS0=      1 NMatT0=    0 NMatD0=    1 NMtDS0=    0 NMtDT0=    0
 Symmetry not used in FoFCou.
 Harris En= -18.1548433312607    
 JPrj=0 DoOrth=F DoCkMO=F.
 Leave Link  401 at Fri Dec  3 20:46:30 2021, MaxMem=   104857600 cpu:               4.1 elap:               4.1
 (Enter /usr/local/g16reva03/legacy_cpu/g16/l502.exe)
 Keep R1 ints in memory in canonical form, NReq=971888.
 FoFCou: FMM=F IPFlag=           0 FMFlag=           0 FMFlg1=           0
         NFxFlg=           0 DoJE=F BraDBF=F KetDBF=F FulRan=T
         wScrn=  0.000000 ICntrl=       600 IOpCl=  0 I1Cent=           0 NGrid=           0
         NMat0=    1 NMatS0=    528 NMatT0=    0 NMatD0=    1 NMtDS0=    0 NMtDT0=    0
 Symmetry not used in FoFCou.
 Two-electron integral symmetry not used.
 Closed shell SCF:
 Using DIIS extrapolation, IDIIS=  1040.
 NGot=   104857600 LenX=   104714572 LenY=   104713107
 Requested convergence on RMS density matrix=1.00D-08 within 128 cycles.
 Requested convergence on MAX density matrix=1.00D-06.
 Requested convergence on             energy=1.00D-06.
 No special actions if energy rises.

 Cycle   1  Pass 1  IDiag  1:
 E= -16.6230628976124    
 DIIS: error= 9.74D-03 at cycle   1 NSaved=   1.
 NSaved= 1 IEnMin= 1 EnMin= -16.6230628976124     IErMin= 1 ErrMin= 9.74D-03
 ErrMax= 9.74D-03  0.00D+00 EMaxC= 1.00D-01 BMatC= 3.91D-03 BMatP= 3.91D-03
 IDIUse=3 WtCom= 9.03D-01 WtEn= 9.74D-02
 Coeff-Com:  0.100D+01
 Coeff-En:   0.100D+01
 Coeff:      0.100D+01
 Gap=     0.163 Goal=   None    Shift=    0.000
 GapD=    0.163 DampG=1.000 DampE=1.000 DampFc=1.0000 IDamp=-1.
 RMSDP=7.53D-03 MaxDP=2.52D-02              OVMax= 0.00D+00

 Cycle   2  Pass 1  IDiag  1:
 E= -16.6467931702666     Delta-E=       -0.023730272654 Rises=F Damp=F
 DIIS: error= 6.51D-03 at cycle   2 NSaved=   2.
 NSaved= 2 IEnMin= 2 EnMin= -16.6467931702666     IErMin= 2 ErrMin= 6.51D-03
 ErrMax= 6.51D-03  0.00D+00 EMaxC= 1.00D-01 BMatC= 1.43D-03 BMatP= 3.91D-03
 IDIUse=3 WtCom= 9.35D-01 WtEn= 6.51D-02
 Coeff-Com: -0.535D+00 0.154D+01
 Coeff-En:   0.000D+00 0.100D+01
 Coeff:     -0.501D+00 0.150D+01
 Gap=     0.199 Goal=   None    Shift=    0.000
 RMSDP=6.88D-03 MaxDP=2.20D-02 DE=-2.37D-02 OVMax= 0.00D+00

 Cycle   3  Pass 1  IDiag  1:
 E= -16.6583634292537     Delta-E=       -0.011570258987 Rises=F Damp=F
 DIIS: error= 2.94D-03 at cycle   3 NSaved=   3.
 NSaved= 3 IEnMin= 3 EnMin= -16.6583634292537     IErMin= 3 ErrMin= 2.94D-03
 ErrMax= 2.94D-03  0.00D+00 EMaxC= 1.00D-01 BMatC= 3.21D-04 BMatP= 1.43D-03
 IDIUse=3 WtCom= 9.71D-01 WtEn= 2.94D-02
 Coeff-Com:  0.836D-01-0.742D+00 0.166D+01
 Coeff-En:   0.000D+00 0.000D+00 0.100D+01
 Coeff:      0.811D-01-0.720D+00 0.164D+01
 Gap=     0.226 Goal=   None    Shift=    0.000
 RMSDP=4.30D-03 MaxDP=1.64D-02 DE=-1.16D-02 OVMax= 0.00D+00

 Cycle   4  Pass 1  IDiag  1:
 E= -16.6611730489836     Delta-E=       -0.002809619730 Rises=F Damp=F
 DIIS: error= 6.34D-04 at cycle   4 NSaved=   4.
 NSaved= 4 IEnMin= 4 EnMin= -16.6611730489836     IErMin= 4 ErrMin= 6.34D-04
 ErrMax= 6.34D-04  0.00D+00 EMaxC= 1.00D-01 BMatC= 2.26D-05 BMatP= 3.21D-04
 IDIUse=3 WtCom= 9.94D-01 WtEn= 6.34D-03
 Coeff-Com:  0.371D-01 0.144D+00-0.640D+00 0.146D+01
 Coeff-En:   0.000D+00 0.000D+00 0.000D+00 0.100D+01
 Coeff:      0.369D-01 0.143D+00-0.636D+00 0.146D+01
 Gap=     0.231 Goal=   None    Shift=    0.000
 RMSDP=8.07D-04 MaxDP=4.16D-03 DE=-2.81D-03 OVMax= 0.00D+00

 Cycle   5  Pass 1  IDiag  1:
 E= -16.6613156564308     Delta-E=       -0.000142607447 Rises=F Damp=F
 DIIS: error= 2.06D-04 at cycle   5 NSaved=   5.
 NSaved= 5 IEnMin= 5 EnMin= -16.6613156564308     IErMin= 5 ErrMin= 2.06D-04
 ErrMax= 2.06D-04  0.00D+00 EMaxC= 1.00D-01 BMatC= 1.42D-06 BMatP= 2.26D-05
 IDIUse=3 WtCom= 9.98D-01 WtEn= 2.06D-03
 Coeff-Com: -0.300D-02 0.842D-02-0.399D-01-0.130D+00 0.116D+01
 Coeff-En:   0.000D+00 0.000D+00 0.000D+00 0.000D+00 0.100D+01
 Coeff:     -0.300D-02 0.840D-02-0.398D-01-0.129D+00 0.116D+01
 Gap=     0.233 Goal=   None    Shift=    0.000
 RMSDP=2.86D-04 MaxDP=1.43D-03 DE=-1.43D-04 OVMax= 0.00D+00

 Cycle   6  Pass 1  IDiag  1:
 E= -16.6613267138071     Delta-E=       -0.000011057376 Rises=F Damp=F
 DIIS: error= 4.33D-05 at cycle   6 NSaved=   6.
 NSaved= 6 IEnMin= 6 EnMin= -16.6613267138071     IErMin= 6 ErrMin= 4.33D-05
 ErrMax= 4.33D-05  0.00D+00 EMaxC= 1.00D-01 BMatC= 6.06D-08 BMatP= 1.42D-06
 IDIUse=1 WtCom= 1.00D+00 WtEn= 0.00D+00
 Coeff-Com: -0.200D-02-0.109D-01 0.488D-01-0.927D-01-0.124D+00 0.118D+01
 Coeff:     -0.200D-02-0.109D-01 0.488D-01-0.927D-01-0.124D+00 0.118D+01
 Gap=     0.233 Goal=   None    Shift=    0.000
 RMSDP=4.17D-05 MaxDP=2.43D-04 DE=-1.11D-05 OVMax= 0.00D+00

 Cycle   7  Pass 1  IDiag  1:
 E= -16.6613270056575     Delta-E=       -0.000000291850 Rises=F Damp=F
 DIIS: error= 1.08D-05 at cycle   7 NSaved=   7.
 NSaved= 7 IEnMin= 7 EnMin= -16.6613270056575     IErMin= 7 ErrMin= 1.08D-05
 ErrMax= 1.08D-05  0.00D+00 EMaxC= 1.00D-01 BMatC= 3.59D-09 BMatP= 6.06D-08
 IDIUse=1 WtCom= 1.00D+00 WtEn= 0.00D+00
 Coeff-Com:  0.146D-03 0.187D-02-0.286D-02 0.165D-01-0.475D-01-0.112D+00
 Coeff-Com:  0.114D+01
 Coeff:      0.146D-03 0.187D-02-0.286D-02 0.165D-01-0.475D-01-0.112D+00
 Coeff:      0.114D+01
 Gap=     0.233 Goal=   None    Shift=    0.000
 RMSDP=1.10D-05 MaxDP=5.41D-05 DE=-2.92D-07 OVMax= 0.00D+00

 Cycle   8  Pass 1  IDiag  1:
 E= -16.6613270236571     Delta-E=       -0.000000018000 Rises=F Damp=F
 DIIS: error= 1.98D-06 at cycle   8 NSaved=   8.
 NSaved= 8 IEnMin= 8 EnMin= -16.6613270236571     IErMin= 8 ErrMin= 1.98D-06
 ErrMax= 1.98D-06  0.00D+00 EMaxC= 1.00D-01 BMatC= 1.41D-10 BMatP= 3.59D-09
 IDIUse=1 WtCom= 1.00D+00 WtEn= 0.00D+00
 Coeff-Com:  0.774D-04 0.401D-03-0.229D-02 0.380D-02 0.543D-02-0.548D-01
 Coeff-Com: -0.352D-01 0.108D+01
 Coeff:      0.774D-04 0.401D-03-0.229D-02 0.380D-02 0.543D-02-0.548D-01
 Coeff:     -0.352D-01 0.108D+01
 Gap=     0.233 Goal=   None    Shift=    0.000
 RMSDP=1.83D-06 MaxDP=1.23D-05 DE=-1.80D-08 OVMax= 0.00D+00

 Cycle   9  Pass 1  IDiag  1:
 E= -16.6613270243470     Delta-E=       -0.000000000690 Rises=F Damp=F
 DIIS: error= 4.15D-07 at cycle   9 NSaved=   9.
 NSaved= 9 IEnMin= 9 EnMin= -16.6613270243470     IErMin= 9 ErrMin= 4.15D-07
 ErrMax= 4.15D-07  0.00D+00 EMaxC= 1.00D-01 BMatC= 4.65D-12 BMatP= 1.41D-10
 IDIUse=1 WtCom= 1.00D+00 WtEn= 0.00D+00
 Coeff-Com:  0.415D-07-0.141D-03 0.237D-03-0.861D-03 0.199D-02 0.626D-02
 Coeff-Com: -0.466D-01-0.228D-01 0.106D+01
 Coeff:      0.415D-07-0.141D-03 0.237D-03-0.861D-03 0.199D-02 0.626D-02
 Coeff:     -0.466D-01-0.228D-01 0.106D+01
 Gap=     0.233 Goal=   None    Shift=    0.000
 RMSDP=2.97D-07 MaxDP=1.77D-06 DE=-6.90D-10 OVMax= 0.00D+00

 Cycle  10  Pass 1  IDiag  1:
 E= -16.6613270243612     Delta-E=       -0.000000000014 Rises=F Damp=F
 DIIS: error= 9.03D-08 at cycle  10 NSaved=  10.
 NSaved=10 IEnMin=10 EnMin= -16.6613270243612     IErMin=10 ErrMin= 9.03D-08
 ErrMax= 9.03D-08  0.00D+00 EMaxC= 1.00D-01 BMatC= 3.02D-13 BMatP= 4.65D-12
 IDIUse=1 WtCom= 1.00D+00 WtEn= 0.00D+00
 Coeff-Com: -0.521D-05-0.921D-05 0.111D-03-0.158D-03-0.219D-03 0.248D-02
 Coeff-Com:  0.249D-02-0.491D-01-0.395D-01 0.108D+01
 Coeff:     -0.521D-05-0.921D-05 0.111D-03-0.158D-03-0.219D-03 0.248D-02
 Coeff:      0.249D-02-0.491D-01-0.395D-01 0.108D+01
 Gap=     0.233 Goal=   None    Shift=    0.000
 RMSDP=1.13D-07 MaxDP=5.46D-07 DE=-1.43D-11 OVMax= 0.00D+00

 Cycle  11  Pass 1  IDiag  1:
 E= -16.6613270243629     Delta-E=       -0.000000000002 Rises=F Damp=F
 DIIS: error= 1.20D-08 at cycle  11 NSaved=  11.
 NSaved=11 IEnMin=11 EnMin= -16.6613270243629     IErMin=11 ErrMin= 1.20D-08
 ErrMax= 1.20D-08  0.00D+00 EMaxC= 1.00D-01 BMatC= 4.74D-15 BMatP= 3.02D-13
 IDIUse=1 WtCom= 1.00D+00 WtEn= 0.00D+00
 Coeff-Com: -0.255D-06 0.617D-05-0.934D-05 0.284D-04-0.684D-04-0.215D-03
 Coeff-Com:  0.170D-02-0.640D-04-0.366D-01 0.246D-01 0.101D+01
 Coeff:     -0.255D-06 0.617D-05-0.934D-05 0.284D-04-0.684D-04-0.215D-03
 Coeff:      0.170D-02-0.640D-04-0.366D-01 0.246D-01 0.101D+01
 Gap=     0.233 Goal=   None    Shift=    0.000
 RMSDP=6.23D-09 MaxDP=2.90D-08 DE=-1.66D-12 OVMax= 0.00D+00

 SCF Done:  E(RHF) =  -16.6613270244     A.U. after   11 cycles
            NFock= 11  Conv=0.62D-08     -V/T= 1.8527
 KE= 1.954029218385D+01 PE=-1.398697741866D+02 EE= 5.187660435008D+01
 Leave Link  502 at Fri Dec  3 20:46:31 2021, MaxMem=   104857600 cpu:               0.2 elap:               0.4
 (Enter /usr/local/g16reva03/legacy_cpu/g16/l601.exe)
 Copying SCF densities to generalized density rwf, IOpCl= 0 IROHF=0.

 **********************************************************************

            Population analysis using the SCF density.

 **********************************************************************

 Alpha  occ. eigenvalues --   -0.70474  -0.69905  -0.68958  -0.67634  -0.65926
 Alpha  occ. eigenvalues --   -0.63824  -0.61313  -0.58375  -0.54987  -0.51123
 Alpha  occ. eigenvalues --   -0.46752  -0.41841  -0.36360  -0.30299  -0.23752
 Alpha  occ. eigenvalues --   -0.17290
 Alpha virt. eigenvalues --    0.06011   0.13394   0.21784   0.30563   0.39598
 Alpha virt. eigenvalues --    0.48840   0.58241   0.67724   0.77175   0.86434
 Alpha virt. eigenvalues --    0.95292   1.03499   1.10775   1.16827   1.21384
 Alpha virt. eigenvalues --    1.24228
          Condensed to atoms (all electrons):
               1          2          3          4          5          6
     1  H    0.745608   0.307021  -0.024001  -0.006750   0.000131   0.000025
     2  H    0.307021   0.642291   0.057909  -0.016749  -0.001309   0.000077
     3  H   -0.024001   0.057909   0.717189   0.282695  -0.021359  -0.006454
     4  H   -0.006750  -0.016749   0.282695   0.672953   0.079360  -0.018331
     5  H    0.000131  -0.001309  -0.021359   0.079360   0.703146   0.269907
     6  H    0.000025   0.000077  -0.006454  -0.018331   0.269907   0.681345
     7  H   -0.000000   0.000004   0.000114  -0.001696  -0.020550   0.088925
     8  H   -0.000000  -0.000000   0.000025   0.000089  -0.006261  -0.018873
     9  H    0.000000  -0.000000  -0.000000   0.000005   0.000109  -0.001885
    10  H    0.000000   0.000000  -0.000000  -0.000000   0.000024   0.000093
    11  H   -0.000000   0.000000   0.000000  -0.000000  -0.000000   0.000006
    12  H    0.000000  -0.000000   0.000000   0.000000  -0.000000  -0.000000
    13  H    0.000000   0.000000  -0.000000   0.000000   0.000000  -0.000000
    14  H    0.000000   0.000000   0.000000  -0.000000   0.000000   0.000000
    15  H    0.000000   0.000000   0.000000   0.000000  -0.000000   0.000000
    16  H    0.000000   0.000000   0.000000   0.000000   0.000000  -0.000000
    17  H    0.000000   0.000000   0.000000   0.000000   0.000000   0.000000
    18  H    0.000000   0.000000   0.000000   0.000000   0.000000   0.000000
    19  H    0.000000   0.000000   0.000000   0.000000   0.000000   0.000000
    20  H    0.000000   0.000000   0.000000   0.000000   0.000000   0.000000
    21  H    0.000000   0.000000   0.000000   0.000000   0.000000   0.000000
    22  H    0.000000   0.000000   0.000000   0.000000   0.000000   0.000000
    23  H    0.000000   0.000000   0.000000   0.000000   0.000000   0.000000
    24  H    0.000000   0.000000   0.000000   0.000000   0.000000   0.000000
    25  H    0.000000   0.000000   0.000000   0.000000   0.000000   0.000000
    26  H    0.000000   0.000000   0.000000   0.000000   0.000000   0.000000
    27  H    0.000000   0.000000   0.000000   0.000000   0.000000   0.000000
    28  H    0.000000   0.000000   0.000000   0.000000   0.000000   0.000000
    29  H    0.000000   0.000000   0.000000   0.000000   0.000000   0.000000
    30  H    0.000000   0.000000   0.000000   0.000000   0.000000   0.000000
    31  H    0.000000   0.000000   0.000000   0.000000   0.000000   0.000000
    32  H    0.000000   0.000000   0.000000   0.000000   0.000000   0.000000
               7          8          9         10         11         12
     1  H   -0.000000  -0.000000   0.000000   0.000000  -0.000000   0.000000
     2  H    0.000004  -0.000000  -0.000000   0.000000   0.000000  -0.000000
     3  H    0.000114   0.000025  -0.000000  -0.000000   0.000000   0.000000
     4  H   -0.001696   0.000089   0.000005  -0.000000  -0.000000   0.000000
     5  H   -0.020550  -0.006261   0.000109   0.000024  -0.000000  -0.000000
     6  H    0.088925  -0.018873  -0.001885   0.000093   0.000006  -0.000000
     7  H    0.697788   0.263599  -0.020183  -0.006158   0.000106   0.000024
     8  H    0.263599   0.684869   0.093942  -0.019139  -0.001989   0.000096
     9  H   -0.020183   0.093942   0.695043   0.260123  -0.019972  -0.006100
    10  H   -0.006158  -0.019139   0.260123   0.686841   0.096786  -0.019305
    11  H    0.000106  -0.001989  -0.019972   0.096786   0.693331   0.258124
    12  H    0.000024   0.000096  -0.006100  -0.019305   0.258124   0.688180
    13  H   -0.000000   0.000006   0.000104  -0.002049  -0.019829   0.098414
    14  H   -0.000000  -0.000000   0.000024   0.000098  -0.006066  -0.019426
    15  H    0.000000  -0.000000  -0.000000   0.000006   0.000102  -0.002082
    16  H    0.000000   0.000000  -0.000000  -0.000000   0.000024   0.000099
    17  H   -0.000000   0.000000   0.000000  -0.000000  -0.000000   0.000007
    18  H    0.000000  -0.000000   0.000000   0.000000  -0.000000  -0.000000
    19  H    0.000000   0.000000  -0.000000   0.000000   0.000000  -0.000000
    20  H    0.000000   0.000000   0.000000  -0.000000   0.000000   0.000000
    21  H    0.000000   0.000000   0.000000   0.000000  -0.000000   0.000000
    22  H    0.000000   0.000000   0.000000   0.000000   0.000000  -0.000000
    23  H    0.000000   0.000000   0.000000   0.000000   0.000000   0.000000
    24  H    0.000000   0.000000   0.000000   0.000000   0.000000   0.000000
    25  H    0.000000   0.000000   0.000000   0.000000   0.000000   0.000000
    26  H    0.000000   0.000000   0.000000   0.000000   0.000000   0.000000
    27  H    0.000000   0.000000   0.000000   0.000000   0.000000   0.000000
    28  H    0.000000   0.000000   0.000000   0.000000   0.000000   0.000000
    29  H    0.000000   0.000000   0.000000   0.000000   0.000000   0.000000
    30  H    0.000000   0.000000   0.000000   0.000000   0.000000   0.000000
    31  H    0.000000   0.000000   0.000000   0.000000   0.000000   0.000000
    32  H    0.000000   0.000000   0.000000   0.000000   0.000000   0.000000
              13         14         15         16         17         18
     1  H    0.000000   0.000000   0.000000   0.000000   0.000000   0.000000
     2  H    0.000000   0.000000   0.000000   0.000000   0.000000   0.000000
     3  H   -0.000000   0.000000   0.000000   0.000000   0.000000   0.000000
     4  H    0.000000  -0.000000   0.000000   0.000000   0.000000   0.000000
     5  H    0.000000   0.000000  -0.000000   0.000000   0.000000   0.000000
     6  H   -0.000000   0.000000   0.000000  -0.000000   0.000000   0.000000
     7  H   -0.000000  -0.000000   0.000000   0.000000  -0.000000   0.000000
     8  H    0.000006  -0.000000  -0.000000   0.000000   0.000000  -0.000000
     9  H    0.000104   0.000024  -0.000000  -0.000000   0.000000   0.000000
    10  H   -0.002049   0.000098   0.000006  -0.000000  -0.000000   0.000000
    11  H   -0.019829  -0.006066   0.000102   0.000024  -0.000000  -0.000000
    12  H    0.098414  -0.019426  -0.002082   0.000099   0.000007  -0.000000
    13  H    0.692094   0.257011  -0.019718  -0.006048   0.000101   0.000024
    14  H    0.257011   0.689231   0.099261  -0.019527  -0.002097   0.000100
    15  H   -0.019718   0.099261   0.691084   0.256510  -0.019621  -0.006043
    16  H   -0.006048  -0.019527   0.256510   0.690163   0.099525  -0.019621
    17  H    0.000101  -0.002097  -0.019621   0.099525   0.690163   0.256510
    18  H    0.000024   0.000100  -0.006043  -0.019621   0.256510   0.691084
    19  H   -0.000000   0.000007   0.000100  -0.002097  -0.019527   0.099261
    20  H   -0.000000  -0.000000   0.000024   0.000101  -0.006048  -0.019718
    21  H    0.000000  -0.000000  -0.000000   0.000007   0.000099  -0.002082
    22  H    0.000000   0.000000  -0.000000  -0.000000   0.000024   0.000102
    23  H   -0.000000   0.000000   0.000000  -0.000000  -0.000000   0.000006
    24  H    0.000000  -0.000000   0.000000   0.000000  -0.000000  -0.000000
    25  H    0.000000   0.000000  -0.000000   0.000000   0.000000  -0.000000
    26  H    0.000000   0.000000   0.000000  -0.000000   0.000000   0.000000
    27  H    0.000000   0.000000   0.000000   0.000000  -0.000000   0.000000
    28  H    0.000000   0.000000   0.000000   0.000000   0.000000  -0.000000
    29  H    0.000000   0.000000   0.000000   0.000000   0.000000   0.000000
    30  H    0.000000   0.000000   0.000000   0.000000   0.000000   0.000000
    31  H    0.000000   0.000000   0.000000   0.000000   0.000000   0.000000
    32  H    0.000000   0.000000   0.000000   0.000000   0.000000   0.000000
              19         20         21         22         23         24
     1  H    0.000000   0.000000   0.000000   0.000000   0.000000   0.000000
     2  H    0.000000   0.000000   0.000000   0.000000   0.000000   0.000000
     3  H    0.000000   0.000000   0.000000   0.000000   0.000000   0.000000
     4  H    0.000000   0.000000   0.000000   0.000000   0.000000   0.000000
     5  H    0.000000   0.000000   0.000000   0.000000   0.000000   0.000000
     6  H    0.000000   0.000000   0.000000   0.000000   0.000000   0.000000
     7  H    0.000000   0.000000   0.000000   0.000000   0.000000   0.000000
     8  H    0.000000   0.000000   0.000000   0.000000   0.000000   0.000000
     9  H   -0.000000   0.000000   0.000000   0.000000   0.000000   0.000000
    10  H    0.000000  -0.000000   0.000000   0.000000   0.000000   0.000000
    11  H    0.000000   0.000000  -0.000000   0.000000   0.000000   0.000000
    12  H   -0.000000   0.000000   0.000000  -0.000000   0.000000   0.000000
    13  H   -0.000000  -0.000000   0.000000   0.000000  -0.000000   0.000000
    14  H    0.000007  -0.000000  -0.000000   0.000000   0.000000  -0.000000
    15  H    0.000100   0.000024  -0.000000  -0.000000   0.000000   0.000000
    16  H   -0.002097   0.000101   0.000007  -0.000000  -0.000000   0.000000
    17  H   -0.019527  -0.006048   0.000099   0.000024  -0.000000  -0.000000
    18  H    0.099261  -0.019718  -0.002082   0.000102   0.000006  -0.000000
    19  H    0.689231   0.257011  -0.019426  -0.006066   0.000098   0.000024
    20  H    0.257011   0.692094   0.098414  -0.019829  -0.002049   0.000104
    21  H   -0.019426   0.098414   0.688180   0.258124  -0.019305  -0.006100
    22  H   -0.006066  -0.019829   0.258124   0.693331   0.096786  -0.019972
    23  H    0.000098  -0.002049  -0.019305   0.096786   0.686841   0.260123
    24  H    0.000024   0.000104  -0.006100  -0.019972   0.260123   0.695043
    25  H   -0.000000   0.000006   0.000096  -0.001989  -0.019139   0.093942
    26  H   -0.000000  -0.000000   0.000024   0.000106  -0.006158  -0.020183
    27  H    0.000000  -0.000000  -0.000000   0.000006   0.000093  -0.001885
    28  H    0.000000   0.000000  -0.000000  -0.000000   0.000024   0.000109
    29  H   -0.000000   0.000000   0.000000  -0.000000  -0.000000   0.000005
    30  H    0.000000  -0.000000   0.000000   0.000000  -0.000000  -0.000000
    31  H    0.000000   0.000000  -0.000000   0.000000   0.000000  -0.000000
    32  H    0.000000   0.000000   0.000000  -0.000000   0.000000   0.000000
              25         26         27         28         29         30
     1  H    0.000000   0.000000   0.000000   0.000000   0.000000   0.000000
     2  H    0.000000   0.000000   0.000000   0.000000   0.000000   0.000000
     3  H    0.000000   0.000000   0.000000   0.000000   0.000000   0.000000
     4  H    0.000000   0.000000   0.000000   0.000000   0.000000   0.000000
     5  H    0.000000   0.000000   0.000000   0.000000   0.000000   0.000000
     6  H    0.000000   0.000000   0.000000   0.000000   0.000000   0.000000
     7  H    0.000000   0.000000   0.000000   0.000000   0.000000   0.000000
     8  H    0.000000   0.000000   0.000000   0.000000   0.000000   0.000000
     9  H    0.000000   0.000000   0.000000   0.000000   0.000000   0.000000
    10  H    0.000000   0.000000   0.000000   0.000000   0.000000   0.000000
    11  H    0.000000   0.000000   0.000000   0.000000   0.000000   0.000000
    12  H    0.000000   0.000000   0.000000   0.000000   0.000000   0.000000
    13  H    0.000000   0.000000   0.000000   0.000000   0.000000   0.000000
    14  H    0.000000   0.000000   0.000000   0.000000   0.000000   0.000000
    15  H   -0.000000   0.000000   0.000000   0.000000   0.000000   0.000000
    16  H    0.000000  -0.000000   0.000000   0.000000   0.000000   0.000000
    17  H    0.000000   0.000000  -0.000000   0.000000   0.000000   0.000000
    18  H   -0.000000   0.000000   0.000000  -0.000000   0.000000   0.000000
    19  H   -0.000000  -0.000000   0.000000   0.000000  -0.000000   0.000000
    20  H    0.000006  -0.000000  -0.000000   0.000000   0.000000  -0.000000
    21  H    0.000096   0.000024  -0.000000  -0.000000   0.000000   0.000000
    22  H   -0.001989   0.000106   0.000006  -0.000000  -0.000000   0.000000
    23  H   -0.019139  -0.006158   0.000093   0.000024  -0.000000  -0.000000
    24  H    0.093942  -0.020183  -0.001885   0.000109   0.000005  -0.000000
    25  H    0.684869   0.263599  -0.018873  -0.006261   0.000089   0.000025
    26  H    0.263599   0.697788   0.088925  -0.020550  -0.001696   0.000114
    27  H   -0.018873   0.088925   0.681345   0.269907  -0.018331  -0.006454
    28  H   -0.006261  -0.020550   0.269907   0.703146   0.079360  -0.021359
    29  H    0.000089  -0.001696  -0.018331   0.079360   0.672953   0.282695
    30  H    0.000025   0.000114  -0.006454  -0.021359   0.282695   0.717189
    31  H   -0.000000   0.000004   0.000077  -0.001309  -0.016749   0.057909
    32  H   -0.000000  -0.000000   0.000025   0.000131  -0.006750  -0.024001
              31         32
     1  H    0.000000   0.000000
     2  H    0.000000   0.000000
     3  H    0.000000   0.000000
     4  H    0.000000   0.000000
     5  H    0.000000   0.000000
     6  H    0.000000   0.000000
     7  H    0.000000   0.000000
     8  H    0.000000   0.000000
     9  H    0.000000   0.000000
    10  H    0.000000   0.000000
    11  H    0.000000   0.000000
    12  H    0.000000   0.000000
    13  H    0.000000   0.000000
    14  H    0.000000   0.000000
    15  H    0.000000   0.000000
    16  H    0.000000   0.000000
    17  H    0.000000   0.000000
    18  H    0.000000   0.000000
    19  H    0.000000   0.000000
    20  H    0.000000   0.000000
    21  H   -0.000000   0.000000
    22  H    0.000000  -0.000000
    23  H    0.000000   0.000000
    24  H   -0.000000   0.000000
    25  H   -0.000000  -0.000000
    26  H    0.000004  -0.000000
    27  H    0.000077   0.000025
    28  H   -0.001309   0.000131
    29  H   -0.016749  -0.006750
    30  H    0.057909  -0.024001
    31  H    0.642291   0.307021
    32  H    0.307021   0.745608
 Mulliken charges:
               1
     1  H   -0.022035
     2  H    0.010756
     3  H   -0.006116
     4  H    0.008425
     5  H   -0.003197
     6  H    0.005166
     7  H   -0.001972
     8  H    0.003637
     9  H   -0.001210
    10  H    0.002680
    11  H   -0.000622
    12  H    0.001970
    13  H   -0.000109
    14  H    0.001385
    15  H    0.000377
    16  H    0.000866
    17  H    0.000866
    18  H    0.000377
    19  H    0.001385
    20  H   -0.000109
    21  H    0.001970
    22  H   -0.000622
    23  H    0.002680
    24  H   -0.001210
    25  H    0.003637
    26  H   -0.001972
    27  H    0.005166
    28  H   -0.003197
    29  H    0.008425
    30  H   -0.006116
    31  H    0.010756
    32  H   -0.022035
 Sum of Mulliken charges =  -0.00000
 Mulliken charges with hydrogens summed into heavy atoms:
               1
 Electronic spatial extent (au):  <R**2>=          40933.7652
 Charge=             -0.0000 electrons
 Dipole moment (field-independent basis, Debye):
    X=             -0.0000    Y=              0.0000    Z=              0.0000  Tot=              0.0000
 Quadrupole moment (field-independent basis, Debye-Ang):
   XX=            -49.7408   YY=            -29.4579   ZZ=            -29.4579
   XY=              0.0000   XZ=              0.0000   YZ=              0.0000
 Traceless Quadrupole moment (field-independent basis, Debye-Ang):
   XX=            -13.5219   YY=              6.7609   ZZ=              6.7609
   XY=              0.0000   XZ=              0.0000   YZ=              0.0000
 Octapole moment (field-independent basis, Debye-Ang**2):
  XXX=          -2462.1677  YYY=              0.0000  ZZZ=              0.0000  XYY=           -486.0560
  XXY=              0.0000  XXZ=              0.0000  XZZ=           -486.0560  YZZ=              0.0000
  YYZ=              0.0000  XYZ=              0.0000
 Hexadecapole moment (field-independent basis, Debye-Ang**3):
 XXXX=        -101576.2235 YYYY=            -24.2942 ZZZZ=            -24.2942 XXXY=              0.0000
 XXXZ=              0.0000 YYYX=              0.0000 YYYZ=              0.0000 ZZZX=              0.0000
 ZZZY=              0.0000 XXYY=         -10546.9310 XXZZ=         -10546.9310 YYZZ=             -8.0981
 XXYZ=              0.0000 YYXZ=              0.0000 ZZXY=              0.0000
 N-N= 5.179155062827D+01 E-N=-1.398697741676D+02  KE= 1.954029218385D+01
 No NMR shielding tensors so no spin-rotation constants.
 Leave Link  601 at Fri Dec  3 20:46:31 2021, MaxMem=   104857600 cpu:               0.1 elap:               0.2
 (Enter /usr/local/g16reva03/legacy_cpu/g16/l9999.exe)
 1\1\GINC-USER1\SP\RHF\STO-3G\H32\AMKINY01\03-Dec-2021\0\\#P rhf/sto-3g
  nosymm output=matrix\\Test\\0,1\H,0,1.,0.,0.\H,0,2.,0.,0.\H,0,3.,0.,0
 .\H,0,4.,0.,0.\H,0,5.,0.,0.\H,0,6.,0.,0.\H,0,7.,0.,0.\H,0,8.,0.,0.\H,0
 ,9.,0.,0.\H,0,10.,0.,0.\H,0,11.,0.,0.\H,0,12.,0.,0.\H,0,13.,0.,0.\H,0,
 14.,0.,0.\H,0,15.,0.,0.\H,0,16.,0.,0.\H,0,17.,0.,0.\H,0,18.,0.,0.\H,0,
 19.,0.,0.\H,0,20.,0.,0.\H,0,21.,0.,0.\H,0,22.,0.,0.\H,0,23.,0.,0.\H,0,
 24.,0.,0.\H,0,25.,0.,0.\H,0,26.,0.,0.\H,0,27.,0.,0.\H,0,28.,0.,0.\H,0,
 29.,0.,0.\H,0,30.,0.,0.\H,0,31.,0.,0.\H,0,32.,0.,0.\\Version=EM64L-G16
 RevA.03\HF=-16.661327\RMSD=6.235e-09\Dipole=0.,0.,0.\Quadrupole=-10.05
 31885,5.0265942,5.0265942,0.,0.,0.\PG=D*H [C*(H1H1H1H1H1H1H1H1H1H1H1H1
 H1H1H1H1.H1H1H1H1H1H1H1H1H1H1H1H1H1H1H1H1)]\\@


 ... IT CAN BE VERY DIFFICULT, IN THESE COMPLEX TIMES,
 TO UNDERSTAND JUST HOW SCIENTISTS DO WHAT THEY DO.

                     DON MOSER IN THE FEBRUARY 1979 SMITHSONIAN

 Writing WrtUnf unformatted file "h32.mat"
 Gaussian matrix elements                                         Version   2 NLab=11 Len12L=8 Len4L=8
 Write SHELL TO ATOM MAP                   from file     0 offset           0 length                  32 to matrix element file.
 Write SHELL TYPES                         from file     0 offset           0 length                  32 to matrix element file.
 Write NUMBER OF PRIMITIVES PER SHELL      from file     0 offset           0 length                  32 to matrix element file.
 Write PRIMITIVE EXPONENTS                 from file     0 offset           0 length                  96 to matrix element file.
 Write CONTRACTION COEFFICIENTS            from file     0 offset           0 length                  96 to matrix element file.
 Write P(S=P) CONTRACTION COEFFICIENTS     from file     0 offset           0 length                  96 to matrix element file.
 Write COORDINATES OF EACH SHELL           from file     0 offset           0 length                  96 to matrix element file.
 Write GAUSSIAN SCALARS                    from file   501 offset           0 to matrix element file.
 Write INTEGER ISO                         from file     0 offset           0 length                  32 to matrix element file.
 Write INTEGER SPIN                        from file     0 offset           0 length                  32 to matrix element file.
 Write REAL ZEFFECTIVE                     from file     0 offset           0 length                  32 to matrix element file.
 Write REAL GFACTOR                        from file     0 offset           0 length                  32 to matrix element file.
 Write REAL ZNUCLEAR                       from file     0 offset           0 length                  32 to matrix element file.
 Write NUCLEAR GRADIENT                    from file 10584 offset           0 length                  96 to matrix element file.
 Array NUCLEAR FORCE CONSTANTS              on  file 10585 does not exist.
 Write ELECTRIC DIPOLE MOMENT              from file     0 offset           0 length                   3 to matrix element file.
 Write OVERLAP                             from file   514 offset           0 length                 528 to matrix element file.
 Write CORE HAMILTONIAN ALPHA              from file   515 offset           0 length                 528 to matrix element file.
 Write CORE HAMILTONIAN BETA               from file   515 offset         528 length                 528 to matrix element file.
 Write KINETIC ENERGY                      from file   516 offset           0 length                 528 to matrix element file.
 Write ORTHOGONAL BASIS                    from file   685 offset           0 length                1024 to matrix element file.
 Write DIPOLE INTEGRALS                    from file   518 offset           0 length                1584 to matrix element file.
 Write DIP VEL INTEGRALS                   from file   572 offset           0 length                1584 to matrix element file.
 Write R X DEL INTEGRALS                   from file   572 offset        1584 length                1584 to matrix element file.
 Write ALPHA ORBITAL ENERGIES              from file     0 offset           0 length                  32 to matrix element file.
 Write ALPHA MO COEFFICIENTS               from file 10524 offset           0 length                1024 to matrix element file.
 Write ALPHA DENSITY MATRIX                from file 10528 offset           0 length                 528 to matrix element file.
 Write ALPHA SCF DENSITY MATRIX            from file 10528 offset           0 length                 528 to matrix element file.
 Write ALPHA FOCK MATRIX                   from file 10536 offset           0 length                 528 to matrix element file.
 No 2e integrals to process.
 Job cpu time:       0 days  0 hours  0 minutes  5.4 seconds.
 Elapsed time:       0 days  0 hours  0 minutes  5.9 seconds.
 File lengths (MBytes):  RWF=     72 Int=      0 D2E=      0 Chk=      8 Scr=      8
 Normal termination of Gaussian 16 at Fri Dec  3 20:46:31 2021.
