 Entering Gaussian System, Link 0=g16
 Input=n2.com
 Output=n2.log
 Initial command:
 /usr/local/g16reva03/legacy_cpu/g16/l1.exe "/scratch/global/g16/Gau-23684.inp" -scrdir="/scratch/global/g16/"
 Entering Link 1 = /usr/local/g16reva03/legacy_cpu/g16/l1.exe PID=     23685.
  
 Copyright (c) 1988,1990,1992,1993,1995,1998,2003,2009,2016,
            Gaussian, Inc.  All Rights Reserved.
  
 This is part of the Gaussian(R) 16 program.  It is based on
 the Gaussian(R) 09 system (copyright 2009, Gaussian, Inc.),
 the Gaussian(R) 03 system (copyright 2003, Gaussian, Inc.),
 the Gaussian(R) 98 system (copyright 1998, Gaussian, Inc.),
 the Gaussian(R) 94 system (copyright 1995, Gaussian, Inc.),
 the Gaussian 92(TM) system (copyright 1992, Gaussian, Inc.),
 the Gaussian 90(TM) system (copyright 1990, Gaussian, Inc.),
 the Gaussian 88(TM) system (copyright 1988, Gaussian, Inc.),
 the Gaussian 86(TM) system (copyright 1986, Carnegie Mellon
 University), and the Gaussian 82(TM) system (copyright 1983,
 Carnegie Mellon University). Gaussian is a federally registered
 trademark of Gaussian, Inc.
  
 This software contains proprietary and confidential information,
 including trade secrets, belonging to Gaussian, Inc.
  
 This software is provided under written license and may be
 used, copied, transmitted, or stored only in accord with that
 written license.
  
 The following legend is applicable only to US Government
 contracts under FAR:
  
                    RESTRICTED RIGHTS LEGEND
  
 Use, reproduction and disclosure by the US Government is
 subject to restrictions as set forth in subparagraphs (a)
 and (c) of the Commercial Computer Software - Restricted
 Rights clause in FAR 52.227-19.
  
 Gaussian, Inc.
 340 Quinnipiac St., Bldg. 40, Wallingford CT 06492
  
  
 ---------------------------------------------------------------
 Warning -- This program may not be used in any manner that
 competes with the business of Gaussian, Inc. or will provide
 assistance to any competitor of Gaussian, Inc.  The licensee
 of this program is prohibited from giving any competitor of
 Gaussian, Inc. access to this program.  By using this program,
 the user acknowledges that Gaussian, Inc. is engaged in the
 business of creating and licensing software in the field of
 computational chemistry and represents and warrants to the
 licensee that it is not a competitor of Gaussian, Inc. and that
 it will not use this program in any manner prohibited above.
 ---------------------------------------------------------------
  

 Cite this work as:
 Gaussian 16, Revision A.03,
 M. J. Frisch, G. W. Trucks, H. B. Schlegel, G. E. Scuseria, 
 M. A. Robb, J. R. Cheeseman, G. Scalmani, V. Barone, 
 G. A. Petersson, H. Nakatsuji, X. Li, M. Caricato, A. V. Marenich, 
 J. Bloino, B. G. Janesko, R. Gomperts, B. Mennucci, H. P. Hratchian, 
 J. V. Ortiz, A. F. Izmaylov, J. L. Sonnenberg, D. Williams-Young, 
 F. Ding, F. Lipparini, F. Egidi, J. Goings, B. Peng, A. Petrone, 
 T. Henderson, D. Ranasinghe, V. G. Zakrzewski, J. Gao, N. Rega, 
 G. Zheng, W. Liang, M. Hada, M. Ehara, K. Toyota, R. Fukuda, 
 J. Hasegawa, M. Ishida, T. Nakajima, Y. Honda, O. Kitao, H. Nakai, 
 T. Vreven, K. Throssell, J. A. Montgomery, Jr., J. E. Peralta, 
 F. Ogliaro, M. J. Bearpark, J. J. Heyd, E. N. Brothers, K. N. Kudin, 
 V. N. Staroverov, T. A. Keith, R. Kobayashi, J. Normand, 
 K. Raghavachari, A. P. Rendell, J. C. Burant, S. S. Iyengar, 
 J. Tomasi, M. Cossi, J. M. Millam, M. Klene, C. Adamo, R. Cammi, 
 J. W. Ochterski, R. L. Martin, K. Morokuma, O. Farkas, 
 J. B. Foresman, and D. J. Fox, Gaussian, Inc., Wallingford CT, 2016.
 
 ******************************************
 Gaussian 16:  EM64L-G16RevA.03 25-Dec-2016
                 4-Dec-2021 
 ******************************************
 ------------------------------------------------
 #P rhf nosymm output=matrix int=noraf scf=conven
 ------------------------------------------------
 1/38=1,172=1/1;
 2/12=2,15=1,17=6,18=5,40=1/2;
 3/25=20,28=1,30=1,116=1/1,2,3,8,20;
 4//1;
 5/5=1,29=1/2;
 6/7=2,8=2,9=2,10=2,28=1/1;
 99/5=1,6=100000,9=1/99;
 Leave Link    1 at Sat Dec  4 17:11:25 2021, MaxMem=           0 cpu:               0.1 elap:               0.1
 (Enter /usr/local/g16reva03/legacy_cpu/g16/l101.exe)
 -----------------
 nitrogen_molecule
 -----------------
 Symbolic Z-matrix:
 Charge =  0 Multiplicity = 1
 N
 N                    1    B1
       Variables:
  B1                    1.092                    
 
 ITRead=  0  0
 MicOpt= -1 -1
 NAtoms=      2 NQM=        2 NQMF=       0 NMMI=      0 NMMIF=      0
                NMic=       0 NMicF=      0.
                    Isotopes and Nuclear Properties:
 (Nuclear quadrupole moments (NQMom) in fm**2, nuclear magnetic moments (NMagM)
  in nuclear magnetons)

  Atom         1           2
 IAtWgt=          14          14
 AtmWgt=  14.0030740  14.0030740
 NucSpn=           2           2
 AtZEff=  -0.0000000  -0.0000000
 NQMom=    2.0440000   2.0440000
 NMagM=    0.4037610   0.4037610
 AtZNuc=   7.0000000   7.0000000
 Leave Link  101 at Sat Dec  4 17:11:26 2021, MaxMem=   104857600 cpu:               0.2 elap:               0.2
 (Enter /usr/local/g16reva03/legacy_cpu/g16/l202.exe)
                          Input orientation:                          
 ---------------------------------------------------------------------
 Center     Atomic      Atomic             Coordinates (Angstroms)
 Number     Number       Type             X           Y           Z
 ---------------------------------------------------------------------
      1          7           0        0.000000    0.000000    0.000000
      2          7           0        0.000000    0.000000    1.092000
 ---------------------------------------------------------------------
 Symmetry turned off by external request.
 Stoichiometry    N2
 Framework group  D*H[C*(N.N)]
 Deg. of freedom     1
 Full point group                 D*H     NOp   8
 Rotational constants (GHZ):           0.0000000          60.5310956          60.5310956
 Leave Link  202 at Sat Dec  4 17:11:26 2021, MaxMem=   104857600 cpu:               0.1 elap:               0.1
 (Enter /usr/local/g16reva03/legacy_cpu/g16/l301.exe)
 Standard basis: STO-3G (5D, 7F)
 Ernie: Thresh=  0.10000D-02 Tol=  0.10000D-05 Strict=F.
    10 basis functions,    30 primitive gaussians,    10 cartesian basis functions
     7 alpha electrons        7 beta electrons
       nuclear repulsion energy        23.7451312592 Hartrees.
 IExCor=    0 DFT=F Ex=HF Corr=None ExCW=0 ScaHFX=  1.000000
 ScaDFX=  1.000000  1.000000  1.000000  1.000000 ScalE2=  1.000000  1.000000
 IRadAn=      5 IRanWt=     -1 IRanGd=            0 ICorTp=0 IEmpDi=  4
 NAtoms=    2 NActive=    2 NUniq=    2 SFac= 1.00D+00 NAtFMM=   60 NAOKFM=F Big=F
 Integral buffers will be    131072 words long.
 Regular integral format.
 Two-electron integral symmetry is turned off.
 Leave Link  301 at Sat Dec  4 17:11:26 2021, MaxMem=   104857600 cpu:               0.1 elap:               0.1
 (Enter /usr/local/g16reva03/legacy_cpu/g16/l302.exe)
 NPDir=0 NMtPBC=     1 NCelOv=     1 NCel=       1 NClECP=     1 NCelD=      1
         NCelK=      1 NCelE2=     1 NClLst=     1 CellRange=     0.0.
 One-electron integrals computed using PRISM.
 NBasis=    10 RedAO= T EigKep=  1.59D-01  NBF=    10
 NBsUse=    10 1.00D-06 EigRej= -1.00D+00 NBFU=    10
 Leave Link  302 at Sat Dec  4 17:11:26 2021, MaxMem=   104857600 cpu:               0.2 elap:               0.2
 (Enter /usr/local/g16reva03/legacy_cpu/g16/l303.exe)
 DipDrv:  MaxL=1.
 Leave Link  303 at Sat Dec  4 17:11:26 2021, MaxMem=   104857600 cpu:               0.1 elap:               0.1
 (Enter /usr/local/g16reva03/legacy_cpu/g16/l308.exe)
 Leave Link  308 at Sat Dec  4 17:11:26 2021, MaxMem=   104857600 cpu:               0.1 elap:               0.1
 (Enter /usr/local/g16reva03/legacy_cpu/g16/l320.exe)
 Enter DskPsm, NBasis=  10 NBas6D=  10 NShell=   4 IDoSP=4.
 Out2e will use a cutoff of  1.00D-10
 FoFCou: FMM=F IPFlag=           0 FMFlag=           0 FMFlg1=           0
         NFxFlg=           0 DoJE=F BraDBF=F KetDBF=F FulRan=T
         wScrn=  0.000000 ICntrl=       600 IOpCl=  9 I1Cent=           0 NGrid=           0
         NMat0=    0 NMatS0=      0 NMatT0=    0 NMatD0=    0 NMtDS0=    0 NMtDT0=    0
 Symmetry not used in FoFCou.
          511 integrals produced for a total of          511.
 Leave Link  320 at Sat Dec  4 17:11:27 2021, MaxMem=   104857600 cpu:               0.2 elap:               0.2
 (Enter /usr/local/g16reva03/legacy_cpu/g16/l401.exe)
 ExpMin= 2.86D-01 ExpMax= 9.91D+01 ExpMxC= 9.91D+01 IAcc=3 IRadAn=         5 AccDes= 0.00D+00
 Harris functional with IExCor=  205 and IRadAn=       5 diagonalized for initial guess.
 HarFok:  IExCor=  205 AccDes= 0.00D+00 IRadAn=         5 IDoV= 1 UseB2=F ITyADJ=14
 ICtDFT=  3500011 ScaDFX=  1.000000  1.000000  1.000000  1.000000
 FoFCou: FMM=F IPFlag=           0 FMFlag=      100000 FMFlg1=           0
         NFxFlg=           0 DoJE=T BraDBF=F KetDBF=T FulRan=T
         wScrn=  0.000000 ICntrl=       500 IOpCl=  0 I1Cent=   200000004 NGrid=           0
         NMat0=    1 NMatS0=      1 NMatT0=    0 NMatD0=    1 NMtDS0=    0 NMtDT0=    0
 Symmetry not used in FoFCou.
 Harris En= -107.412898890276    
 JPrj=0 DoOrth=F DoCkMO=F.
 Leave Link  401 at Sat Dec  4 17:11:27 2021, MaxMem=   104857600 cpu:               0.3 elap:               0.3
 (Enter /usr/local/g16reva03/legacy_cpu/g16/l502.exe)
 Two-electron integral symmetry not used.
 Closed shell SCF:
 Using DIIS extrapolation, IDIIS=  1040.
 Unsorted integral processing.
 NGot=   104857600 LenX=   104594132 LenY=   104593250
 Requested convergence on RMS density matrix=1.00D-08 within 128 cycles.
 Requested convergence on MAX density matrix=1.00D-06.
 Requested convergence on             energy=1.00D-06.
 No special actions if energy rises.

 Cycle   1  Pass 1  IDiag  1:
 E= -107.493209571525    
 DIIS: error= 3.09D-02 at cycle   1 NSaved=   1.
 NSaved= 1 IEnMin= 1 EnMin= -107.493209571525     IErMin= 1 ErrMin= 3.09D-02
 ErrMax= 3.09D-02  0.00D+00 EMaxC= 1.00D-01 BMatC= 6.64D-03 BMatP= 6.64D-03
 IDIUse=3 WtCom= 6.91D-01 WtEn= 3.09D-01
 Coeff-Com:  0.100D+01
 Coeff-En:   0.100D+01
 Coeff:      0.100D+01
 Gap=     0.826 Goal=   None    Shift=    0.000
 GapD=    0.826 DampG=2.000 DampE=0.500 DampFc=1.0000 IDamp=-1.
 RMSDP=3.17D-03 MaxDP=9.80D-03              OVMax= 0.00D+00

 Cycle   2  Pass 1  IDiag  1:
 E= -107.494182365944     Delta-E=       -0.000972794419 Rises=F Damp=F
 DIIS: error= 2.36D-03 at cycle   2 NSaved=   2.
 NSaved= 2 IEnMin= 2 EnMin= -107.494182365944     IErMin= 2 ErrMin= 2.36D-03
 ErrMax= 2.36D-03  0.00D+00 EMaxC= 1.00D-01 BMatC= 2.44D-05 BMatP= 6.64D-03
 IDIUse=3 WtCom= 9.76D-01 WtEn= 2.36D-02
 Coeff-Com: -0.572D-01 0.106D+01
 Coeff-En:   0.000D+00 0.100D+01
 Coeff:     -0.559D-01 0.106D+01
 Gap=     0.825 Goal=   None    Shift=    0.000
 RMSDP=6.71D-04 MaxDP=2.71D-03 DE=-9.73D-04 OVMax= 0.00D+00

 Cycle   3  Pass 1  IDiag  1:
 E= -107.494194129081     Delta-E=       -0.000011763137 Rises=F Damp=F
 DIIS: error= 2.04D-04 at cycle   3 NSaved=   3.
 NSaved= 3 IEnMin= 3 EnMin= -107.494194129081     IErMin= 3 ErrMin= 2.04D-04
 ErrMax= 2.04D-04  0.00D+00 EMaxC= 1.00D-01 BMatC= 2.53D-07 BMatP= 2.44D-05
 IDIUse=3 WtCom= 9.98D-01 WtEn= 2.04D-03
 Coeff-Com:  0.142D-01-0.296D+00 0.128D+01
 Coeff-En:   0.000D+00 0.000D+00 0.100D+01
 Coeff:      0.141D-01-0.296D+00 0.128D+01
 Gap=     0.825 Goal=   None    Shift=    0.000
 RMSDP=1.49D-04 MaxDP=6.26D-04 DE=-1.18D-05 OVMax= 0.00D+00

 Cycle   4  Pass 1  IDiag  1:
 E= -107.494194474940     Delta-E=       -0.000000345859 Rises=F Damp=F
 DIIS: error= 7.82D-08 at cycle   4 NSaved=   4.
 NSaved= 4 IEnMin= 4 EnMin= -107.494194474940     IErMin= 4 ErrMin= 7.82D-08
 ErrMax= 7.82D-08  0.00D+00 EMaxC= 1.00D-01 BMatC= 4.67D-14 BMatP= 2.53D-07
 IDIUse=1 WtCom= 1.00D+00 WtEn= 0.00D+00
 Coeff-Com: -0.165D-06 0.145D-04-0.507D-03 0.100D+01
 Coeff:     -0.165D-06 0.145D-04-0.507D-03 0.100D+01
 Gap=     0.825 Goal=   None    Shift=    0.000
 RMSDP=6.43D-08 MaxDP=2.71D-07 DE=-3.46D-07 OVMax= 0.00D+00

 Cycle   5  Pass 1  IDiag  1:
 E= -107.494194474940     Delta-E=       -0.000000000000 Rises=F Damp=F
 DIIS: error= 1.03D-12 at cycle   5 NSaved=   5.
 NSaved= 5 IEnMin= 5 EnMin= -107.494194474940     IErMin= 5 ErrMin= 1.03D-12
 ErrMax= 1.03D-12  0.00D+00 EMaxC= 1.00D-01 BMatC= 4.59D-24 BMatP= 4.67D-14
 IDIUse=1 WtCom= 1.00D+00 WtEn= 0.00D+00
 Large coefficients: NSaved=  5 BigCof=    0.00 CofMax=   10.00 Det=-4.97D-29
 Inversion failed.  Reducing to  4 matrices.
 Coeff-Com: -0.315D-08 0.128D-06-0.250D-03 0.100D+01
 Coeff:     -0.315D-08 0.128D-06-0.250D-03 0.100D+01
 Gap=     0.825 Goal=   None    Shift=    0.000
 RMSDP=5.21D-13 MaxDP=2.22D-12 DE=-1.42D-13 OVMax= 0.00D+00

 SCF Done:  E(RHF) =  -107.494194475     A.U. after    5 cycles
            NFock=  5  Conv=0.52D-12     -V/T= 2.0121
 KE= 1.062076207366D+02 PE=-2.988810291846D+02 EE= 6.143408271384D+01
 Leave Link  502 at Sat Dec  4 17:11:27 2021, MaxMem=   104857600 cpu:               0.1 elap:               0.1
 (Enter /usr/local/g16reva03/legacy_cpu/g16/l601.exe)
 Copying SCF densities to generalized density rwf, IOpCl= 0 IROHF=0.

 **********************************************************************

            Population analysis using the SCF density.

 **********************************************************************

 Alpha  occ. eigenvalues --  -15.51998 -15.51794  -1.44814  -0.72174  -0.57696
 Alpha  occ. eigenvalues --   -0.57696  -0.54090
 Alpha virt. eigenvalues --    0.28383   0.28383   1.13664
          Condensed to atoms (all electrons):
               1          2
     1  N    6.362987   0.637013
     2  N    0.637013   6.362987
 Mulliken charges:
               1
     1  N    0.000000
     2  N   -0.000000
 Sum of Mulliken charges =   0.00000
 Mulliken charges with hydrogens summed into heavy atoms:
               1
     1  N    0.000000
     2  N   -0.000000
 Electronic spatial extent (au):  <R**2>=             52.2334
 Charge=              0.0000 electrons
 Dipole moment (field-independent basis, Debye):
    X=             -0.0000    Y=              0.0000    Z=             -0.0000  Tot=              0.0000
 Quadrupole moment (field-independent basis, Debye-Ang):
   XX=             -9.1947   YY=             -9.1947   ZZ=            -11.7728
   XY=             -0.0000   XZ=             -0.0000   YZ=              0.0000
 Traceless Quadrupole moment (field-independent basis, Debye-Ang):
   XX=              0.8594   YY=              0.8594   ZZ=             -1.7188
   XY=             -0.0000   XZ=             -0.0000   YZ=              0.0000
 Octapole moment (field-independent basis, Debye-Ang**2):
  XXX=             -0.0000  YYY=              0.0000  ZZZ=            -19.2839  XYY=             -0.0000
  XXY=              0.0000  XXZ=             -5.0203  XZZ=             -0.0000  YZZ=              0.0000
  YYZ=             -5.0203  XYZ=              0.0000
 Hexadecapole moment (field-independent basis, Debye-Ang**3):
 XXXX=             -5.7114 YYYY=             -5.7114 ZZZZ=            -47.9866 XXXY=             -0.0000
 XXXZ=             -0.0000 YYYX=             -0.0000 YYYZ=              0.0000 ZZZX=             -0.0000
 ZZZY=              0.0000 XXYY=             -1.9038 XXZZ=             -7.6601 YYZZ=             -7.6601
 XXYZ=              0.0000 YYXZ=             -0.0000 ZZXY=              0.0000
 N-N= 2.374513125923D+01 E-N=-2.988810291846D+02  KE= 1.062076207366D+02
 No NMR shielding tensors so no spin-rotation constants.
 Leave Link  601 at Sat Dec  4 17:11:27 2021, MaxMem=   104857600 cpu:               0.2 elap:               0.1
 (Enter /usr/local/g16reva03/legacy_cpu/g16/l9999.exe)
 1\1\GINC-USER1\SP\RHF\STO-3G\N2\AMKINY01\04-Dec-2021\0\\#P rhf nosymm 
 output=matrix int=noraf scf=conven\\nitrogen_molecule\\0,1\N\N,1,1.092
 \\Version=EM64L-G16RevA.03\HF=-107.4941945\RMSD=5.211e-13\Dipole=0.,0.
 ,0.\Quadrupole=0.6389314,0.6389314,-1.2778628,0.,0.,0.\PG=D*H [C*(N1.N
 1)]\\@


 A MUSTACHE HAIR ACROSS A CHIP IS LIKE A REDWOOD
 TREE FALLING THROUGH A HOUSING PROJECT.
 - AN IBM MANAGER IN EAST FISHKILL, NEW YORK
   AS QUOTED IN "FROM SANDS TO CIRCUITS", IBM INNOVATION JANUARY 1985.

 Writing WrtUnf unformatted file "n2_Ang.mat"
 Gaussian matrix elements                                         Version   2 NLab=11 Len12L=8 Len4L=8
 Write SHELL TO ATOM MAP                   from file     0 offset           0 length                   4 to matrix element file.
 Write SHELL TYPES                         from file     0 offset           0 length                   4 to matrix element file.
 Write NUMBER OF PRIMITIVES PER SHELL      from file     0 offset           0 length                   4 to matrix element file.
 Write PRIMITIVE EXPONENTS                 from file     0 offset           0 length                  12 to matrix element file.
 Write CONTRACTION COEFFICIENTS            from file     0 offset           0 length                  12 to matrix element file.
 Write P(S=P) CONTRACTION COEFFICIENTS     from file     0 offset           0 length                  12 to matrix element file.
 Write COORDINATES OF EACH SHELL           from file     0 offset           0 length                  12 to matrix element file.
 Write BONDS PER ATOM                      from file     0 offset           0 length                   2 to matrix element file.
 Write BONDED ATOMS                        from file     0 offset           0 length                   2 to matrix element file.
 Write BOND TYPES                          from file     0 offset           0 length                   2 to matrix element file.
 Write GAUSSIAN SCALARS                    from file   501 offset           0 to matrix element file.
 Write INTEGER ISO                         from file     0 offset           0 length                   2 to matrix element file.
 Write INTEGER SPIN                        from file     0 offset           0 length                   2 to matrix element file.
 Write REAL ZEFFECTIVE                     from file     0 offset           0 length                   2 to matrix element file.
 Write REAL QUADRUPOLEMOMENT               from file     0 offset           0 length                   2 to matrix element file.
 Write REAL GFACTOR                        from file     0 offset           0 length                   2 to matrix element file.
 Write REAL ZNUCLEAR                       from file     0 offset           0 length                   2 to matrix element file.
 Write NUCLEAR GRADIENT                    from file 10584 offset           0 length                   6 to matrix element file.
 Array NUCLEAR FORCE CONSTANTS              on  file 10585 does not exist.
 Write ELECTRIC DIPOLE MOMENT              from file     0 offset           0 length                   3 to matrix element file.
 Write OVERLAP                             from file   514 offset           0 length                  55 to matrix element file.
 Write CORE HAMILTONIAN ALPHA              from file   515 offset           0 length                  55 to matrix element file.
 Write CORE HAMILTONIAN BETA               from file   515 offset          55 length                  55 to matrix element file.
 Write KINETIC ENERGY                      from file   516 offset           0 length                  55 to matrix element file.
 Write ORTHOGONAL BASIS                    from file   685 offset           0 length                 100 to matrix element file.
 Write DIPOLE INTEGRALS                    from file   518 offset           0 length                 165 to matrix element file.
 Write DIP VEL INTEGRALS                   from file   572 offset           0 length                 165 to matrix element file.
 Write R X DEL INTEGRALS                   from file   572 offset         165 length                 165 to matrix element file.
 Write ALPHA ORBITAL ENERGIES              from file     0 offset           0 length                  10 to matrix element file.
 Write ALPHA MO COEFFICIENTS               from file 10524 offset           0 length                 100 to matrix element file.
 Write ALPHA DENSITY MATRIX                from file 10528 offset           0 length                  55 to matrix element file.
 Write ALPHA SCF DENSITY MATRIX            from file 10528 offset           0 length                  55 to matrix element file.
 Write ALPHA FOCK MATRIX                   from file 10536 offset           0 length                  55 to matrix element file.
 Write REGULAR 2E INTEGRALS                to matrix element file, NR=1 ITotal=         511.
 Job cpu time:       0 days  0 hours  0 minutes  1.8 seconds.
 Elapsed time:       0 days  0 hours  0 minutes  1.8 seconds.
 File lengths (MBytes):  RWF=     72 Int=      4 D2E=      0 Chk=      8 Scr=      8
 Normal termination of Gaussian 16 at Sat Dec  4 17:11:27 2021.
