 Entering Gaussian System, Link 0=g16
 Input=test-file.com
 Output=test-file.log
 Initial command:
 /usr/local/g16reva03/legacy_cpu/g16/l1.exe "/scratch/global/g16/Gau-1638.inp" -scrdir="/scratch/global/g16/"
 Entering Link 1 = /usr/local/g16reva03/legacy_cpu/g16/l1.exe PID=      1639.
  
 Copyright (c) 1988,1990,1992,1993,1995,1998,2003,2009,2016,
            Gaussian, Inc.  All Rights Reserved.
  
 This is part of the Gaussian(R) 16 program.  It is based on
 the Gaussian(R) 09 system (copyright 2009, Gaussian, Inc.),
 the Gaussian(R) 03 system (copyright 2003, Gaussian, Inc.),
 the Gaussian(R) 98 system (copyright 1998, Gaussian, Inc.),
 the Gaussian(R) 94 system (copyright 1995, Gaussian, Inc.),
 the Gaussian 92(TM) system (copyright 1992, Gaussian, Inc.),
 the Gaussian 90(TM) system (copyright 1990, Gaussian, Inc.),
 the Gaussian 88(TM) system (copyright 1988, Gaussian, Inc.),
 the Gaussian 86(TM) system (copyright 1986, Carnegie Mellon
 University), and the Gaussian 82(TM) system (copyright 1983,
 Carnegie Mellon University). Gaussian is a federally registered
 trademark of Gaussian, Inc.
  
 This software contains proprietary and confidential information,
 including trade secrets, belonging to Gaussian, Inc.
  
 This software is provided under written license and may be
 used, copied, transmitted, or stored only in accord with that
 written license.
  
 The following legend is applicable only to US Government
 contracts under FAR:
  
                    RESTRICTED RIGHTS LEGEND
  
 Use, reproduction and disclosure by the US Government is
 subject to restrictions as set forth in subparagraphs (a)
 and (c) of the Commercial Computer Software - Restricted
 Rights clause in FAR 52.227-19.
  
 Gaussian, Inc.
 340 Quinnipiac St., Bldg. 40, Wallingford CT 06492
  
  
 ---------------------------------------------------------------
 Warning -- This program may not be used in any manner that
 competes with the business of Gaussian, Inc. or will provide
 assistance to any competitor of Gaussian, Inc.  The licensee
 of this program is prohibited from giving any competitor of
 Gaussian, Inc. access to this program.  By using this program,
 the user acknowledges that Gaussian, Inc. is engaged in the
 business of creating and licensing software in the field of
 computational chemistry and represents and warrants to the
 licensee that it is not a competitor of Gaussian, Inc. and that
 it will not use this program in any manner prohibited above.
 ---------------------------------------------------------------
  

 Cite this work as:
 Gaussian 16, Revision A.03,
 M. J. Frisch, G. W. Trucks, H. B. Schlegel, G. E. Scuseria, 
 M. A. Robb, J. R. Cheeseman, G. Scalmani, V. Barone, 
 G. A. Petersson, H. Nakatsuji, X. Li, M. Caricato, A. V. Marenich, 
 J. Bloino, B. G. Janesko, R. Gomperts, B. Mennucci, H. P. Hratchian, 
 J. V. Ortiz, A. F. Izmaylov, J. L. Sonnenberg, D. Williams-Young, 
 F. Ding, F. Lipparini, F. Egidi, J. Goings, B. Peng, A. Petrone, 
 T. Henderson, D. Ranasinghe, V. G. Zakrzewski, J. Gao, N. Rega, 
 G. Zheng, W. Liang, M. Hada, M. Ehara, K. Toyota, R. Fukuda, 
 J. Hasegawa, M. Ishida, T. Nakajima, Y. Honda, O. Kitao, H. Nakai, 
 T. Vreven, K. Throssell, J. A. Montgomery, Jr., J. E. Peralta, 
 F. Ogliaro, M. J. Bearpark, J. J. Heyd, E. N. Brothers, K. N. Kudin, 
 V. N. Staroverov, T. A. Keith, R. Kobayashi, J. Normand, 
 K. Raghavachari, A. P. Rendell, J. C. Burant, S. S. Iyengar, 
 J. Tomasi, M. Cossi, J. M. Millam, M. Klene, C. Adamo, R. Cammi, 
 J. W. Ochterski, R. L. Martin, K. Morokuma, O. Farkas, 
 J. B. Foresman, and D. J. Fox, Gaussian, Inc., Wallingford CT, 2016.
 
 ******************************************
 Gaussian 16:  EM64L-G16RevA.03 25-Dec-2016
                 3-Dec-2021 
 ******************************************
 ------------------------------------------------
 #P rhf nosymm output=matrix int=noraf scf=conven
 ------------------------------------------------
 1/38=1,172=1/1;
 2/12=2,15=1,17=6,18=5,40=1/2;
 3/25=20,28=1,30=1,116=1/1,2,3,8,20;
 4//1;
 5/5=1,29=1/2;
 6/7=2,8=2,9=2,10=2,28=1/1;
 99/5=1,6=100000,9=1/99;
 Leave Link    1 at Fri Dec  3 22:00:28 2021, MaxMem=           0 cpu:               0.1 elap:               0.9
 (Enter /usr/local/g16reva03/legacy_cpu/g16/l101.exe)
 -----------------
 Hydrogen_Molecule
 -----------------
 Symbolic Z-matrix:
 Charge =  0 Multiplicity = 1
 H
 H                    1     1. 
 H                    2     1.       1     180. 
 H                    3     1.       2     180.     1     0.       0
 H                    4     1.       3     180.     1     0.       0
 H                    5     1.       4     180.     1     0.       0
 H                    6     1.       5     180.     1     0.       0
 H                    7     1.       6     180.     1     0.       0
 
 ITRead=  0  0  0  0  0  0  0  0
 MicOpt= -1 -1 -1 -1 -1 -1 -1 -1
 NAtoms=      8 NQM=        8 NQMF=       0 NMMI=      0 NMMIF=      0
                NMic=       0 NMicF=      0.
                    Isotopes and Nuclear Properties:
 (Nuclear quadrupole moments (NQMom) in fm**2, nuclear magnetic moments (NMagM)
  in nuclear magnetons)

  Atom         1           2           3           4           5           6           7           8
 IAtWgt=           1           1           1           1           1           1           1           1
 AtmWgt=   1.0078250   1.0078250   1.0078250   1.0078250   1.0078250   1.0078250   1.0078250   1.0078250
 NucSpn=           1           1           1           1           1           1           1           1
 AtZEff=  -0.0000000  -0.0000000  -0.0000000  -0.0000000  -0.0000000  -0.0000000  -0.0000000  -0.0000000
 NQMom=    0.0000000   0.0000000   0.0000000   0.0000000   0.0000000   0.0000000   0.0000000   0.0000000
 NMagM=    2.7928460   2.7928460   2.7928460   2.7928460   2.7928460   2.7928460   2.7928460   2.7928460
 AtZNuc=   1.0000000   1.0000000   1.0000000   1.0000000   1.0000000   1.0000000   1.0000000   1.0000000
 Leave Link  101 at Fri Dec  3 22:00:29 2021, MaxMem=   104857600 cpu:               0.2 elap:               0.3
 (Enter /usr/local/g16reva03/legacy_cpu/g16/l202.exe)
                          Input orientation:                          
 ---------------------------------------------------------------------
 Center     Atomic      Atomic             Coordinates (Angstroms)
 Number     Number       Type             X           Y           Z
 ---------------------------------------------------------------------
      1          1           0        0.000000    0.000000    0.000000
      2          1           0        0.000000    0.000000    1.000000
      3          1           0        0.000000    0.000000    2.000000
      4          1           0        0.000000    0.000000    3.000000
      5          1           0        0.000000    0.000000    4.000000
      6          1           0        0.000000    0.000000    5.000000
      7          1           0        0.000000    0.000000    6.000000
      8          1           0        0.000000    0.000000    7.000000
 ---------------------------------------------------------------------
                    Distance matrix (angstroms):
                    1          2          3          4          5
     1  H    0.000000
     2  H    1.000000   0.000000
     3  H    2.000000   1.000000   0.000000
     4  H    3.000000   2.000000   1.000000   0.000000
     5  H    4.000000   3.000000   2.000000   1.000000   0.000000
     6  H    5.000000   4.000000   3.000000   2.000000   1.000000
     7  H    6.000000   5.000000   4.000000   3.000000   2.000000
     8  H    7.000000   6.000000   5.000000   4.000000   3.000000
                    6          7          8
     6  H    0.000000
     7  H    1.000000   0.000000
     8  H    2.000000   1.000000   0.000000
 Symmetry turned off by external request.
 Stoichiometry    H8
 Framework group  D*H[C*(HHHH.HHHH)]
 Deg. of freedom     4
 Full point group                 D*H     NOp   8
 Rotational constants (GHZ):           0.0000000          11.9394072          11.9394072
 Leave Link  202 at Fri Dec  3 22:00:29 2021, MaxMem=   104857600 cpu:               0.1 elap:               0.1
 (Enter /usr/local/g16reva03/legacy_cpu/g16/l301.exe)
 Standard basis: STO-3G (5D, 7F)
 Ernie: Thresh=  0.10000D-02 Tol=  0.10000D-05 Strict=F.
     8 basis functions,    24 primitive gaussians,     8 cartesian basis functions
     4 alpha electrons        4 beta electrons
       nuclear repulsion energy         7.2724068129 Hartrees.
 IExCor=    0 DFT=F Ex=HF Corr=None ExCW=0 ScaHFX=  1.000000
 ScaDFX=  1.000000  1.000000  1.000000  1.000000 ScalE2=  1.000000  1.000000
 IRadAn=      5 IRanWt=     -1 IRanGd=            0 ICorTp=0 IEmpDi=  4
 NAtoms=    8 NActive=    8 NUniq=    8 SFac= 1.00D+00 NAtFMM=   60 NAOKFM=F Big=F
 Integral buffers will be    131072 words long.
 Regular integral format.
 Two-electron integral symmetry is turned off.
 Leave Link  301 at Fri Dec  3 22:00:29 2021, MaxMem=   104857600 cpu:               0.1 elap:               0.1
 (Enter /usr/local/g16reva03/legacy_cpu/g16/l302.exe)
 NPDir=0 NMtPBC=     1 NCelOv=     1 NCel=       1 NClECP=     1 NCelD=      1
         NCelK=      1 NCelE2=     1 NClLst=     1 CellRange=     0.0.
 One-electron integrals computed using PRISM.
 NBasis=     8 RedAO= T EigKep=  2.35D-01  NBF=     8
 NBsUse=     8 1.00D-06 EigRej= -1.00D+00 NBFU=     8
 Leave Link  302 at Fri Dec  3 22:00:29 2021, MaxMem=   104857600 cpu:               0.1 elap:               0.2
 (Enter /usr/local/g16reva03/legacy_cpu/g16/l303.exe)
 DipDrv:  MaxL=1.
 Leave Link  303 at Fri Dec  3 22:00:29 2021, MaxMem=   104857600 cpu:               0.1 elap:               0.1
 (Enter /usr/local/g16reva03/legacy_cpu/g16/l308.exe)
 Leave Link  308 at Fri Dec  3 22:00:29 2021, MaxMem=   104857600 cpu:               0.1 elap:               0.1
 (Enter /usr/local/g16reva03/legacy_cpu/g16/l320.exe)
 Enter DskPsm, NBasis=   8 NBas6D=   8 NShell=   8 IDoSP=4.
 Out2e will use a cutoff of  1.00D-10
 FoFCou: FMM=F IPFlag=           0 FMFlag=           0 FMFlg1=           0
         NFxFlg=           0 DoJE=F BraDBF=F KetDBF=F FulRan=T
         wScrn=  0.000000 ICntrl=       600 IOpCl=  9 I1Cent=           0 NGrid=           0
         NMat0=    0 NMatS0=      0 NMatT0=    0 NMatD0=    0 NMtDS0=    0 NMtDT0=    0
 Symmetry not used in FoFCou.
          653 integrals produced for a total of          653.
 Leave Link  320 at Fri Dec  3 22:00:30 2021, MaxMem=   104857600 cpu:               0.1 elap:               0.1
 (Enter /usr/local/g16reva03/legacy_cpu/g16/l401.exe)
 ExpMin= 1.69D-01 ExpMax= 3.43D+00 ExpMxC= 3.43D+00 IAcc=3 IRadAn=         5 AccDes= 0.00D+00
 Harris functional with IExCor=  205 and IRadAn=       5 diagonalized for initial guess.
 HarFok:  IExCor=  205 AccDes= 0.00D+00 IRadAn=         5 IDoV= 1 UseB2=F ITyADJ=14
 ICtDFT=  3500011 ScaDFX=  1.000000  1.000000  1.000000  1.000000
 FoFCou: FMM=F IPFlag=           0 FMFlag=      100000 FMFlg1=           0
         NFxFlg=           0 DoJE=T BraDBF=F KetDBF=T FulRan=T
         wScrn=  0.000000 ICntrl=       500 IOpCl=  0 I1Cent=   200000004 NGrid=           0
         NMat0=    1 NMatS0=      1 NMatT0=    0 NMatD0=    1 NMtDS0=    0 NMtDT0=    0
 Symmetry not used in FoFCou.
 Harris En= -4.51896682440336    
 JPrj=0 DoOrth=F DoCkMO=F.
 Leave Link  401 at Fri Dec  3 22:00:30 2021, MaxMem=   104857600 cpu:               0.7 elap:               0.8
 (Enter /usr/local/g16reva03/legacy_cpu/g16/l502.exe)
 Two-electron integral symmetry not used.
 Closed shell SCF:
 Using DIIS extrapolation, IDIIS=  1040.
 Unsorted integral processing.
 NGot=   104857600 LenX=   104593984 LenY=   104593102
 Requested convergence on RMS density matrix=1.00D-08 within 128 cycles.
 Requested convergence on MAX density matrix=1.00D-06.
 Requested convergence on             energy=1.00D-06.
 No special actions if energy rises.

 Cycle   1  Pass 1  IDiag  1:
 E= -4.16273096102727    
 DIIS: error= 2.03D-02 at cycle   1 NSaved=   1.
 NSaved= 1 IEnMin= 1 EnMin= -4.16273096102727     IErMin= 1 ErrMin= 2.03D-02
 ErrMax= 2.03D-02  0.00D+00 EMaxC= 1.00D-01 BMatC= 2.82D-03 BMatP= 2.82D-03
 IDIUse=3 WtCom= 7.97D-01 WtEn= 2.03D-01
 Coeff-Com:  0.100D+01
 Coeff-En:   0.100D+01
 Coeff:      0.100D+01
 Gap=     0.439 Goal=   None    Shift=    0.000
 GapD=    0.439 DampG=2.000 DampE=0.500 DampFc=1.0000 IDamp=-1.
 RMSDP=1.42D-02 MaxDP=2.92D-02              OVMax= 0.00D+00

 Cycle   2  Pass 1  IDiag  1:
 E= -4.17267704786999     Delta-E=       -0.009946086843 Rises=F Damp=F
 DIIS: error= 7.05D-03 at cycle   2 NSaved=   2.
 NSaved= 2 IEnMin= 2 EnMin= -4.17267704786999     IErMin= 2 ErrMin= 7.05D-03
 ErrMax= 7.05D-03  0.00D+00 EMaxC= 1.00D-01 BMatC= 4.37D-04 BMatP= 2.82D-03
 IDIUse=3 WtCom= 9.30D-01 WtEn= 7.05D-02
 Coeff-Com: -0.359D+00 0.136D+01
 Coeff-En:   0.000D+00 0.100D+01
 Coeff:     -0.334D+00 0.133D+01
 Gap=     0.465 Goal=   None    Shift=    0.000
 RMSDP=8.04D-03 MaxDP=1.75D-02 DE=-9.95D-03 OVMax= 0.00D+00

 Cycle   3  Pass 1  IDiag  1:
 E= -4.17429901914859     Delta-E=       -0.001621971279 Rises=F Damp=F
 DIIS: error= 1.42D-03 at cycle   3 NSaved=   3.
 NSaved= 3 IEnMin= 3 EnMin= -4.17429901914859     IErMin= 3 ErrMin= 1.42D-03
 ErrMax= 1.42D-03  0.00D+00 EMaxC= 1.00D-01 BMatC= 1.90D-05 BMatP= 4.37D-04
 IDIUse=3 WtCom= 9.86D-01 WtEn= 1.42D-02
 Coeff-Com: -0.532D-01-0.929D-01 0.115D+01
 Coeff-En:   0.000D+00 0.000D+00 0.100D+01
 Coeff:     -0.524D-01-0.916D-01 0.114D+01
 Gap=     0.470 Goal=   None    Shift=    0.000
 RMSDP=1.84D-03 MaxDP=4.50D-03 DE=-1.62D-03 OVMax= 0.00D+00

 Cycle   4  Pass 1  IDiag  1:
 E= -4.17436964473093     Delta-E=       -0.000070625582 Rises=F Damp=F
 DIIS: error= 1.15D-04 at cycle   4 NSaved=   4.
 NSaved= 4 IEnMin= 4 EnMin= -4.17436964473093     IErMin= 4 ErrMin= 1.15D-04
 ErrMax= 1.15D-04  0.00D+00 EMaxC= 1.00D-01 BMatC= 9.10D-08 BMatP= 1.90D-05
 IDIUse=3 WtCom= 9.99D-01 WtEn= 1.15D-03
 Coeff-Com:  0.574D-02-0.482D-04-0.773D-01 0.107D+01
 Coeff-En:   0.000D+00 0.000D+00 0.000D+00 0.100D+01
 Coeff:      0.573D-02-0.481D-04-0.772D-01 0.107D+01
 Gap=     0.470 Goal=   None    Shift=    0.000
 RMSDP=7.66D-05 MaxDP=2.10D-04 DE=-7.06D-05 OVMax= 0.00D+00

 Cycle   5  Pass 1  IDiag  1:
 E= -4.17436981067156     Delta-E=       -0.000000165941 Rises=F Damp=F
 DIIS: error= 1.54D-05 at cycle   5 NSaved=   5.
 NSaved= 5 IEnMin= 5 EnMin= -4.17436981067156     IErMin= 5 ErrMin= 1.54D-05
 ErrMax= 1.54D-05  0.00D+00 EMaxC= 1.00D-01 BMatC= 2.01D-09 BMatP= 9.10D-08
 IDIUse=1 WtCom= 1.00D+00 WtEn= 0.00D+00
 Coeff-Com:  0.577D-03 0.121D-02-0.143D-01-0.862D-01 0.110D+01
 Coeff:      0.577D-03 0.121D-02-0.143D-01-0.862D-01 0.110D+01
 Gap=     0.470 Goal=   None    Shift=    0.000
 RMSDP=1.19D-05 MaxDP=3.89D-05 DE=-1.66D-07 OVMax= 0.00D+00

 Cycle   6  Pass 1  IDiag  1:
 E= -4.17436981580293     Delta-E=       -0.000000005131 Rises=F Damp=F
 DIIS: error= 1.54D-06 at cycle   6 NSaved=   6.
 NSaved= 6 IEnMin= 6 EnMin= -4.17436981580293     IErMin= 6 ErrMin= 1.54D-06
 ErrMax= 1.54D-06  0.00D+00 EMaxC= 1.00D-01 BMatC= 3.16D-11 BMatP= 2.01D-09
 IDIUse=1 WtCom= 1.00D+00 WtEn= 0.00D+00
 Coeff-Com: -0.218D-03-0.382D-03 0.448D-02 0.336D-02-0.237D+00 0.123D+01
 Coeff:     -0.218D-03-0.382D-03 0.448D-02 0.336D-02-0.237D+00 0.123D+01
 Gap=     0.470 Goal=   None    Shift=    0.000
 RMSDP=2.03D-06 MaxDP=6.37D-06 DE=-5.13D-09 OVMax= 0.00D+00

 Cycle   7  Pass 1  IDiag  1:
 E= -4.17436981589131     Delta-E=       -0.000000000088 Rises=F Damp=F
 DIIS: error= 1.31D-07 at cycle   7 NSaved=   7.
 NSaved= 7 IEnMin= 7 EnMin= -4.17436981589131     IErMin= 7 ErrMin= 1.31D-07
 ErrMax= 1.31D-07  0.00D+00 EMaxC= 1.00D-01 BMatC= 9.71D-14 BMatP= 3.16D-11
 IDIUse=1 WtCom= 1.00D+00 WtEn= 0.00D+00
 Coeff-Com:  0.235D-04 0.634D-04-0.521D-03-0.936D-04 0.250D-01-0.136D+00
 Coeff-Com:  0.111D+01
 Coeff:      0.235D-04 0.634D-04-0.521D-03-0.936D-04 0.250D-01-0.136D+00
 Coeff:      0.111D+01
 Gap=     0.470 Goal=   None    Shift=    0.000
 RMSDP=1.60D-07 MaxDP=3.46D-07 DE=-8.84D-11 OVMax= 0.00D+00

 Cycle   8  Pass 1  IDiag  1:
 E= -4.17436981589166     Delta-E=       -0.000000000000 Rises=F Damp=F
 DIIS: error= 1.20D-08 at cycle   8 NSaved=   8.
 NSaved= 8 IEnMin= 8 EnMin= -4.17436981589166     IErMin= 8 ErrMin= 1.20D-08
 ErrMax= 1.20D-08  0.00D+00 EMaxC= 1.00D-01 BMatC= 1.05D-15 BMatP= 9.71D-14
 IDIUse=1 WtCom= 1.00D+00 WtEn= 0.00D+00
 Coeff-Com: -0.140D-05-0.661D-05 0.357D-04-0.220D-04-0.145D-02 0.808D-02
 Coeff-Com: -0.941D-01 0.109D+01
 Coeff:     -0.140D-05-0.661D-05 0.357D-04-0.220D-04-0.145D-02 0.808D-02
 Coeff:     -0.941D-01 0.109D+01
 Gap=     0.470 Goal=   None    Shift=    0.000
 RMSDP=1.52D-08 MaxDP=3.57D-08 DE=-3.53D-13 OVMax= 0.00D+00

 Cycle   9  Pass 1  IDiag  1:
 E= -4.17436981589166     Delta-E=       -0.000000000000 Rises=F Damp=F
 DIIS: error= 9.18D-10 at cycle   9 NSaved=   9.
 NSaved= 9 IEnMin= 9 EnMin= -4.17436981589166     IErMin= 9 ErrMin= 9.18D-10
 ErrMax= 9.18D-10  0.00D+00 EMaxC= 1.00D-01 BMatC= 5.84D-18 BMatP= 1.05D-15
 IDIUse=1 WtCom= 1.00D+00 WtEn= 0.00D+00
 Coeff-Com: -0.133D-07 0.237D-06-0.528D-07 0.260D-05-0.174D-04 0.781D-04
 Coeff-Com:  0.299D-03-0.533D-01 0.105D+01
 Coeff:     -0.133D-07 0.237D-06-0.528D-07 0.260D-05-0.174D-04 0.781D-04
 Coeff:      0.299D-03-0.533D-01 0.105D+01
 Gap=     0.470 Goal=   None    Shift=    0.000
 RMSDP=1.15D-09 MaxDP=2.69D-09 DE=-3.55D-15 OVMax= 0.00D+00

 SCF Done:  E(RHF) =  -4.17436981589     A.U. after    9 cycles
            NFock=  9  Conv=0.11D-08     -V/T= 1.8591
 KE= 4.858965925645D+00 PE=-2.365473134168D+01 EE= 7.348988787210D+00
 Leave Link  502 at Fri Dec  3 22:00:31 2021, MaxMem=   104857600 cpu:               0.1 elap:               0.2
 (Enter /usr/local/g16reva03/legacy_cpu/g16/l601.exe)
 Copying SCF densities to generalized density rwf, IOpCl= 0 IROHF=0.

 **********************************************************************

            Population analysis using the SCF density.

 **********************************************************************

 Alpha  occ. eigenvalues --   -0.68308  -0.60365  -0.47262  -0.28955
 Alpha virt. eigenvalues --    0.18084   0.47926   0.81649   1.11844
          Condensed to atoms (all electrons):
               1          2          3          4          5          6
     1  H    0.735329   0.310354  -0.022786  -0.006913   0.000113   0.000027
     2  H    0.310354   0.645913   0.052406  -0.017253  -0.001091   0.000084
     3  H   -0.022786   0.052406   0.704170   0.292279  -0.019640  -0.006812
     4  H   -0.006913  -0.017253   0.292279   0.681914   0.064328  -0.019640
     5  H    0.000113  -0.001091  -0.019640   0.064328   0.681914   0.292279
     6  H    0.000027   0.000084  -0.006812  -0.019640   0.292279   0.704170
     7  H   -0.000000   0.000002   0.000084  -0.001091  -0.017253   0.052406
     8  H   -0.000000  -0.000000   0.000027   0.000113  -0.006913  -0.022786
               7          8
     1  H   -0.000000  -0.000000
     2  H    0.000002  -0.000000
     3  H    0.000084   0.000027
     4  H   -0.001091   0.000113
     5  H   -0.017253  -0.006913
     6  H    0.052406  -0.022786
     7  H    0.645913   0.310354
     8  H    0.310354   0.735329
 Mulliken charges:
               1
     1  H   -0.016123
     2  H    0.009586
     3  H    0.000273
     4  H    0.006264
     5  H    0.006264
     6  H    0.000273
     7  H    0.009586
     8  H   -0.016123
 Sum of Mulliken charges =  -0.00000
 Mulliken charges with hydrogens summed into heavy atoms:
               1
 Electronic spatial extent (au):  <R**2>=            516.4487
 Charge=             -0.0000 electrons
 Dipole moment (field-independent basis, Debye):
    X=              0.0000    Y=              0.0000    Z=             -0.0000  Tot=              0.0000
 Quadrupole moment (field-independent basis, Debye-Ang):
   XX=             -7.3903   YY=             -7.3903   ZZ=             -7.4119
   XY=              0.0000   XZ=              0.0000   YZ=              0.0000
 Traceless Quadrupole moment (field-independent basis, Debye-Ang):
   XX=              0.0072   YY=              0.0072   ZZ=             -0.0144
   XY=              0.0000   XZ=              0.0000   YZ=              0.0000
 Octapole moment (field-independent basis, Debye-Ang**2):
  XXX=              0.0000  YYY=              0.0000  ZZZ=            -77.8246  XYY=              0.0000
  XXY=              0.0000  XXZ=            -25.8662  XZZ=              0.0000  YZZ=              0.0000
  YYZ=            -25.8662  XYZ=              0.0000
 Hexadecapole moment (field-independent basis, Debye-Ang**3):
 XXXX=             -6.1135 YYYY=             -6.1135 ZZZZ=           -753.0715 XXXY=              0.0000
 XXXZ=              0.0000 YYYX=              0.0000 YYYZ=              0.0000 ZZZX=              0.0000
 ZZZY=              0.0000 XXYY=             -2.0378 XXZZ=           -131.4533 YYZZ=           -131.4533
 XXYZ=              0.0000 YYXZ=              0.0000 ZZXY=              0.0000
 N-N= 7.272406812929D+00 E-N=-2.365473134185D+01  KE= 4.858965925645D+00
 No NMR shielding tensors so no spin-rotation constants.
 Leave Link  601 at Fri Dec  3 22:00:31 2021, MaxMem=   104857600 cpu:               0.1 elap:               0.2
 (Enter /usr/local/g16reva03/legacy_cpu/g16/l9999.exe)
 1\1\GINC-USER1\SP\RHF\STO-3G\H8\AMKINY01\03-Dec-2021\0\\#P rhf nosymm 
 output=matrix int=noraf scf=conven\\Hydrogen_Molecule\\0,1\H\H,1,1.\H,
 2,1.,1,180.\H,3,1.,2,180.,1,0.,0\H,4,1.,3,180.,1,0.,0\H,5,1.,4,180.,1,
 0.,0\H,6,1.,5,180.,1,0.,0\H,7,1.,6,180.,1,0.,0\\Version=EM64L-G16RevA.
 03\HF=-4.1743698\RMSD=1.147e-09\Dipole=0.,0.,0.\Quadrupole=0.0053363,0
 .0053363,-0.0106725,0.,0.,0.\PG=D*H [C*(H1H1H1H1.H1H1H1H1)]\\@


 REVOLUTIONS HAVE NEVER LIGHTENED THE BURDEN OF TYRANNY:
 THEY HAVE MERELY SHIFTED IT TO OTHER SHOULDERS.
                                   -- G. B. SHAW (1903)

 Writing WrtUnf unformatted file "hxx_Ang.mat"
 Gaussian matrix elements                                         Version   2 NLab=11 Len12L=8 Len4L=8
 Write SHELL TO ATOM MAP                   from file     0 offset           0 length                   8 to matrix element file.
 Write SHELL TYPES                         from file     0 offset           0 length                   8 to matrix element file.
 Write NUMBER OF PRIMITIVES PER SHELL      from file     0 offset           0 length                   8 to matrix element file.
 Write PRIMITIVE EXPONENTS                 from file     0 offset           0 length                  24 to matrix element file.
 Write CONTRACTION COEFFICIENTS            from file     0 offset           0 length                  24 to matrix element file.
 Write P(S=P) CONTRACTION COEFFICIENTS     from file     0 offset           0 length                  24 to matrix element file.
 Write COORDINATES OF EACH SHELL           from file     0 offset           0 length                  24 to matrix element file.
 Write GAUSSIAN SCALARS                    from file   501 offset           0 to matrix element file.
 Write INTEGER ISO                         from file     0 offset           0 length                   8 to matrix element file.
 Write INTEGER SPIN                        from file     0 offset           0 length                   8 to matrix element file.
 Write REAL ZEFFECTIVE                     from file     0 offset           0 length                   8 to matrix element file.
 Write REAL GFACTOR                        from file     0 offset           0 length                   8 to matrix element file.
 Write REAL ZNUCLEAR                       from file     0 offset           0 length                   8 to matrix element file.
 Write NUCLEAR GRADIENT                    from file 10584 offset           0 length                  24 to matrix element file.
 Array NUCLEAR FORCE CONSTANTS              on  file 10585 does not exist.
 Write ELECTRIC DIPOLE MOMENT              from file     0 offset           0 length                   3 to matrix element file.
 Write OVERLAP                             from file   514 offset           0 length                  36 to matrix element file.
 Write CORE HAMILTONIAN ALPHA              from file   515 offset           0 length                  36 to matrix element file.
 Write CORE HAMILTONIAN BETA               from file   515 offset          36 length                  36 to matrix element file.
 Write KINETIC ENERGY                      from file   516 offset           0 length                  36 to matrix element file.
 Write ORTHOGONAL BASIS                    from file   685 offset           0 length                  64 to matrix element file.
 Write DIPOLE INTEGRALS                    from file   518 offset           0 length                 108 to matrix element file.
 Write DIP VEL INTEGRALS                   from file   572 offset           0 length                 108 to matrix element file.
 Write R X DEL INTEGRALS                   from file   572 offset         108 length                 108 to matrix element file.
 Write ALPHA ORBITAL ENERGIES              from file     0 offset           0 length                   8 to matrix element file.
 Write ALPHA MO COEFFICIENTS               from file 10524 offset           0 length                  64 to matrix element file.
 Write ALPHA DENSITY MATRIX                from file 10528 offset           0 length                  36 to matrix element file.
 Write ALPHA SCF DENSITY MATRIX            from file 10528 offset           0 length                  36 to matrix element file.
 Write ALPHA FOCK MATRIX                   from file 10536 offset           0 length                  36 to matrix element file.
 Write REGULAR 2E INTEGRALS                to matrix element file, NR=1 ITotal=         653.
 Job cpu time:       0 days  0 hours  0 minutes  2.0 seconds.
 Elapsed time:       0 days  0 hours  0 minutes  3.6 seconds.
 File lengths (MBytes):  RWF=     72 Int=      4 D2E=      0 Chk=      8 Scr=      8
 Normal termination of Gaussian 16 at Fri Dec  3 22:00:32 2021.
