************************************************************
This is node458 of the Cardinal research cluster.
Date: Tue Dec 14 12:31:26 EST 2021
************************************************************
 Set GAUSS_MDEF to "12GB".
 Set GAUSS_PDEF to "8".
 Entering Gaussian System, Link 0=g16
 Initial command:
 /usr/local/g16reva03/legacy_cpu/g16/l1.exe "/scratch/global/amkiny01/Gau-31136.inp" -scrdir="/scratch/global/amkiny01/"
 Default is to use a total of   8 processors:
                                8 via shared-memory
                                1 via Linda
 Entering Link 1 = /usr/local/g16reva03/legacy_cpu/g16/l1.exe PID=     31137.
  
 Copyright (c) 1988,1990,1992,1993,1995,1998,2003,2009,2016,
            Gaussian, Inc.  All Rights Reserved.
  
 This is part of the Gaussian(R) 16 program.  It is based on
 the Gaussian(R) 09 system (copyright 2009, Gaussian, Inc.),
 the Gaussian(R) 03 system (copyright 2003, Gaussian, Inc.),
 the Gaussian(R) 98 system (copyright 1998, Gaussian, Inc.),
 the Gaussian(R) 94 system (copyright 1995, Gaussian, Inc.),
 the Gaussian 92(TM) system (copyright 1992, Gaussian, Inc.),
 the Gaussian 90(TM) system (copyright 1990, Gaussian, Inc.),
 the Gaussian 88(TM) system (copyright 1988, Gaussian, Inc.),
 the Gaussian 86(TM) system (copyright 1986, Carnegie Mellon
 University), and the Gaussian 82(TM) system (copyright 1983,
 Carnegie Mellon University). Gaussian is a federally registered
 trademark of Gaussian, Inc.
  
 This software contains proprietary and confidential information,
 including trade secrets, belonging to Gaussian, Inc.
  
 This software is provided under written license and may be
 used, copied, transmitted, or stored only in accord with that
 written license.
  
 The following legend is applicable only to US Government
 contracts under FAR:
  
                    RESTRICTED RIGHTS LEGEND
  
 Use, reproduction and disclosure by the US Government is
 subject to restrictions as set forth in subparagraphs (a)
 and (c) of the Commercial Computer Software - Restricted
 Rights clause in FAR 52.227-19.
  
 Gaussian, Inc.
 340 Quinnipiac St., Bldg. 40, Wallingford CT 06492
  
  
 ---------------------------------------------------------------
 Warning -- This program may not be used in any manner that
 competes with the business of Gaussian, Inc. or will provide
 assistance to any competitor of Gaussian, Inc.  The licensee
 of this program is prohibited from giving any competitor of
 Gaussian, Inc. access to this program.  By using this program,
 the user acknowledges that Gaussian, Inc. is engaged in the
 business of creating and licensing software in the field of
 computational chemistry and represents and warrants to the
 licensee that it is not a competitor of Gaussian, Inc. and that
 it will not use this program in any manner prohibited above.
 ---------------------------------------------------------------
  

 Cite this work as:
 Gaussian 16, Revision A.03,
 M. J. Frisch, G. W. Trucks, H. B. Schlegel, G. E. Scuseria, 
 M. A. Robb, J. R. Cheeseman, G. Scalmani, V. Barone, 
 G. A. Petersson, H. Nakatsuji, X. Li, M. Caricato, A. V. Marenich, 
 J. Bloino, B. G. Janesko, R. Gomperts, B. Mennucci, H. P. Hratchian, 
 J. V. Ortiz, A. F. Izmaylov, J. L. Sonnenberg, D. Williams-Young, 
 F. Ding, F. Lipparini, F. Egidi, J. Goings, B. Peng, A. Petrone, 
 T. Henderson, D. Ranasinghe, V. G. Zakrzewski, J. Gao, N. Rega, 
 G. Zheng, W. Liang, M. Hada, M. Ehara, K. Toyota, R. Fukuda, 
 J. Hasegawa, M. Ishida, T. Nakajima, Y. Honda, O. Kitao, H. Nakai, 
 T. Vreven, K. Throssell, J. A. Montgomery, Jr., J. E. Peralta, 
 F. Ogliaro, M. J. Bearpark, J. J. Heyd, E. N. Brothers, K. N. Kudin, 
 V. N. Staroverov, T. A. Keith, R. Kobayashi, J. Normand, 
 K. Raghavachari, A. P. Rendell, J. C. Burant, S. S. Iyengar, 
 J. Tomasi, M. Cossi, J. M. Millam, M. Klene, C. Adamo, R. Cammi, 
 J. W. Ochterski, R. L. Martin, K. Morokuma, O. Farkas, 
 J. B. Foresman, and D. J. Fox, Gaussian, Inc., Wallingford CT, 2016.
 
 ******************************************
 Gaussian 16:  EM64L-G16RevA.03 25-Dec-2016
                14-Dec-2021 
 ******************************************
 %chk=carbon_scf_stability_calcs_triplet.chk
 ----------------------------------------
 #P uhf/6-31g(d) geom=connectivity stable
 ----------------------------------------
 1/38=1,57=2,172=1/1;
 2/12=2,17=6,18=5,40=1/2;
 3/5=1,6=6,7=1,11=2,25=1,30=1,116=2/1,2,3;
 4//1;
 5/5=2,38=5/2;
 8/6=1,10=90,11=11/1;
 9/8=-1,42=1/14;
 6/7=2,8=2,9=2,10=2,28=1/1;
 99/5=1,9=1/99;
 Leave Link    1 at Tue Dec 14 12:31:26 2021, MaxMem=           0 cpu:               2.7 elap:               0.4
 (Enter /usr/local/g16reva03/legacy_cpu/g16/l101.exe)
 -----------------------------------
 Stability test for a triplet carbon
 -----------------------------------
 Symbolic Z-matrix:
 Charge =  0 Multiplicity = 3
 C
 
 ITRead=  0
 MicOpt= -1
 NAtoms=      1 NQM=        1 NQMF=       0 NMMI=      0 NMMIF=      0
                NMic=       0 NMicF=      0.
                    Isotopes and Nuclear Properties:
 (Nuclear quadrupole moments (NQMom) in fm**2, nuclear magnetic moments (NMagM)
  in nuclear magnetons)

  Atom         1
 IAtWgt=          12
 AtmWgt=  12.0000000
 NucSpn=           0
 AtZEff=  -0.0000000
 NQMom=    0.0000000
 NMagM=    0.0000000
 AtZNuc=   6.0000000
 Leave Link  101 at Tue Dec 14 12:31:26 2021, MaxMem=  1610612736 cpu:               0.7 elap:               0.1
 (Enter /usr/local/g16reva03/legacy_cpu/g16/l202.exe)
                          Input orientation:                          
 ---------------------------------------------------------------------
 Center     Atomic      Atomic             Coordinates (Angstroms)
 Number     Number       Type             X           Y           Z
 ---------------------------------------------------------------------
      1          6           0        0.000000    0.000000    0.000000
 ---------------------------------------------------------------------
 Stoichiometry    C(3)
 Framework group  OH[O(C)]
 Deg. of freedom     0
 Full point group                 OH      NOp  48
 Largest Abelian subgroup         D2H     NOp   8
 Largest concise Abelian subgroup C1      NOp   1
                         Standard orientation:                         
 ---------------------------------------------------------------------
 Center     Atomic      Atomic             Coordinates (Angstroms)
 Number     Number       Type             X           Y           Z
 ---------------------------------------------------------------------
      1          6           0        0.000000    0.000000    0.000000
 ---------------------------------------------------------------------
 Leave Link  202 at Tue Dec 14 12:31:26 2021, MaxMem=  1610612736 cpu:               0.2 elap:               0.0
 (Enter /usr/local/g16reva03/legacy_cpu/g16/l301.exe)
 Standard basis: 6-31G(d) (6D, 7F)
 Ernie: Thresh=  0.10000D-02 Tol=  0.10000D-05 Strict=F.
 There are     6 symmetry adapted cartesian basis functions of AG  symmetry.
 There are     1 symmetry adapted cartesian basis functions of B1G symmetry.
 There are     1 symmetry adapted cartesian basis functions of B2G symmetry.
 There are     1 symmetry adapted cartesian basis functions of B3G symmetry.
 There are     0 symmetry adapted cartesian basis functions of AU  symmetry.
 There are     2 symmetry adapted cartesian basis functions of B1U symmetry.
 There are     2 symmetry adapted cartesian basis functions of B2U symmetry.
 There are     2 symmetry adapted cartesian basis functions of B3U symmetry.
 There are     6 symmetry adapted basis functions of AG  symmetry.
 There are     1 symmetry adapted basis functions of B1G symmetry.
 There are     1 symmetry adapted basis functions of B2G symmetry.
 There are     1 symmetry adapted basis functions of B3G symmetry.
 There are     0 symmetry adapted basis functions of AU  symmetry.
 There are     2 symmetry adapted basis functions of B1U symmetry.
 There are     2 symmetry adapted basis functions of B2U symmetry.
 There are     2 symmetry adapted basis functions of B3U symmetry.
    15 basis functions,    28 primitive gaussians,    15 cartesian basis functions
     4 alpha electrons        2 beta electrons
       nuclear repulsion energy         0.0000000000 Hartrees.
 IExCor=    0 DFT=F Ex=HF Corr=None ExCW=0 ScaHFX=  1.000000
 ScaDFX=  1.000000  1.000000  1.000000  1.000000 ScalE2=  1.000000  1.000000
 IRadAn=      5 IRanWt=     -1 IRanGd=            0 ICorTp=0 IEmpDi=  4
 NAtoms=    1 NActive=    1 NUniq=    1 SFac= 1.00D+00 NAtFMM=   60 NAOKFM=F Big=F
 Integral buffers will be    131072 words long.
 Raffenetti 2 integral format.
 Two-electron integral symmetry is turned on.
 Leave Link  301 at Tue Dec 14 12:31:26 2021, MaxMem=  1610612736 cpu:               0.6 elap:               0.1
 (Enter /usr/local/g16reva03/legacy_cpu/g16/l302.exe)
 NPDir=0 NMtPBC=     1 NCelOv=     1 NCel=       1 NClECP=     1 NCelD=      1
         NCelK=      1 NCelE2=     1 NClLst=     1 CellRange=     0.0.
 One-electron integrals computed using PRISM.
 One-electron integral symmetry used in STVInt
 NBasis=    15 RedAO= T EigKep=  4.76D-02  NBF=     6     1     1     1     0     2     2     2
 NBsUse=    15 1.00D-06 EigRej= -1.00D+00 NBFU=     6     1     1     1     0     2     2     2
 Leave Link  302 at Tue Dec 14 12:31:27 2021, MaxMem=  1610612736 cpu:               1.5 elap:               0.2
 (Enter /usr/local/g16reva03/legacy_cpu/g16/l303.exe)
 DipDrv:  MaxL=1.
 Leave Link  303 at Tue Dec 14 12:31:27 2021, MaxMem=  1610612736 cpu:               0.3 elap:               0.0
 (Enter /usr/local/g16reva03/legacy_cpu/g16/l401.exe)
 ExpMin= 1.69D-01 ExpMax= 3.05D+03 ExpMxC= 4.57D+02 IAcc=3 IRadAn=         5 AccDes= 0.00D+00
 Harris functional with IExCor=  205 and IRadAn=       5 diagonalized for initial guess.
 HarFok:  IExCor=  205 AccDes= 0.00D+00 IRadAn=         5 IDoV= 1 UseB2=F ITyADJ=14
 ICtDFT=  3500011 ScaDFX=  1.000000  1.000000  1.000000  1.000000
 FoFCou: FMM=F IPFlag=           0 FMFlag=      100000 FMFlg1=           0
         NFxFlg=           0 DoJE=T BraDBF=F KetDBF=T FulRan=T
         wScrn=  0.000000 ICntrl=       500 IOpCl=  0 I1Cent=   200000004 NGrid=           0
         NMat0=    1 NMatS0=      1 NMatT0=    0 NMatD0=    1 NMtDS0=    0 NMtDT0=    0
 Petite list used in FoFCou.
 Harris En= -37.5191480453709    
 JPrj=0 DoOrth=F DoCkMO=F.
 Initial guess orbital symmetries:
 Alpha Orbitals:
       Occupied  (A1G) (A1G) (T1U) (T1U)
       Virtual   (T1U) (T1U) (T1U) (T1U) (A1G) (T2G) (T2G) (T2G)
                 (EG) (EG) (A1G)
 Beta  Orbitals:
       Occupied  (A1G) (A1G)
       Virtual   (T1U) (T1U) (T1U) (T1U) (T1U) (T1U) (A1G) (T2G)
                 (T2G) (T2G) (EG) (EG) (A1G)
 Initial guess <Sx>= 0.0000 <Sy>= 0.0000 <Sz>= 1.0000 <S**2>= 2.0000 S= 1.0000
 Leave Link  401 at Tue Dec 14 12:31:27 2021, MaxMem=  1610612736 cpu:               1.6 elap:               0.2
 (Enter /usr/local/g16reva03/legacy_cpu/g16/l502.exe)
 Keep R1 and R2 ints in memory in symmetry-blocked form, NReq=1654150.
 FoFCou: FMM=F IPFlag=           0 FMFlag=           0 FMFlg1=           0
         NFxFlg=           0 DoJE=F BraDBF=F KetDBF=F FulRan=T
         wScrn=  0.000000 ICntrl=       600 IOpCl=  0 I1Cent=           0 NGrid=           0
         NMat0=    1 NMatS0=    120 NMatT0=    0 NMatD0=    1 NMtDS0=    0 NMtDT0=    0
 Petite list used in FoFCou.
 UHF open shell SCF:
 Using DIIS extrapolation, IDIIS=  1040.
 NGot=  1610612736 LenX=  1610606769 LenY=  1610605887
 Requested convergence on RMS density matrix=1.00D-08 within 128 cycles.
 Requested convergence on MAX density matrix=1.00D-06.
 Requested convergence on             energy=1.00D-06.
 No special actions if energy rises.

 Cycle   1  Pass 1  IDiag  1:
 Density matrix breaks symmetry, PCut= 1.00D-07
 Density has only Abelian symmetry.
 E= -37.6711117187395    
 DIIS: error= 8.96D-02 at cycle   1 NSaved=   1.
 NSaved= 1 IEnMin= 1 EnMin= -37.6711117187395     IErMin= 1 ErrMin= 8.96D-02
 ErrMax= 8.96D-02  0.00D+00 EMaxC= 1.00D-01 BMatC= 1.49D-01 BMatP= 1.49D-01
 IDIUse=3 WtCom= 1.04D-01 WtEn= 8.96D-01
 Coeff-Com:  0.100D+01
 Coeff-En:   0.100D+01
 Coeff:      0.100D+01
 Gap=     0.485 Goal=   None    Shift=    0.000
 Gap=     0.706 Goal=   None    Shift=    0.000
 GapD=    0.485 DampG=2.000 DampE=0.500 DampFc=1.0000 IDamp=-1.
 RMSDP=6.44D-03 MaxDP=4.78D-02              OVMax= 2.27D-02

 Cycle   2  Pass 1  IDiag  1:
 Density matrix breaks symmetry, PCut= 1.00D-07
 Density has only Abelian symmetry.
 E= -37.6804079858615     Delta-E=       -0.009296267122 Rises=F Damp=F
 DIIS: error= 6.04D-03 at cycle   2 NSaved=   2.
 NSaved= 2 IEnMin= 2 EnMin= -37.6804079858615     IErMin= 2 ErrMin= 6.04D-03
 ErrMax= 6.04D-03  0.00D+00 EMaxC= 1.00D-01 BMatC= 1.48D-03 BMatP= 1.49D-01
 IDIUse=3 WtCom= 9.40D-01 WtEn= 6.04D-02
 Coeff-Com: -0.621D-01 0.106D+01
 Coeff-En:   0.000D+00 0.100D+01
 Coeff:     -0.583D-01 0.106D+01
 Gap=     0.481 Goal=   None    Shift=    0.000
 Gap=     0.679 Goal=   None    Shift=    0.000
 RMSDP=1.40D-03 MaxDP=1.56D-02 DE=-9.30D-03 OVMax= 9.59D-03

 Cycle   3  Pass 1  IDiag  1:
 Density matrix breaks symmetry, PCut= 1.00D-07
 Density has only Abelian symmetry.
 E= -37.6808070278656     Delta-E=       -0.000399042004 Rises=F Damp=F
 DIIS: error= 1.90D-03 at cycle   3 NSaved=   3.
 NSaved= 3 IEnMin= 3 EnMin= -37.6808070278656     IErMin= 3 ErrMin= 1.90D-03
 ErrMax= 1.90D-03  0.00D+00 EMaxC= 1.00D-01 BMatC= 1.04D-04 BMatP= 1.48D-03
 IDIUse=3 WtCom= 9.81D-01 WtEn= 1.90D-02
 Coeff-Com:  0.189D-01-0.406D+00 0.139D+01
 Coeff-En:   0.000D+00 0.000D+00 0.100D+01
 Coeff:      0.186D-01-0.399D+00 0.138D+01
 Gap=     0.484 Goal=   None    Shift=    0.000
 Gap=     0.675 Goal=   None    Shift=    0.000
 RMSDP=6.98D-04 MaxDP=8.65D-03 DE=-3.99D-04 OVMax= 4.54D-03

 Cycle   4  Pass 1  IDiag  1:
 Density matrix breaks symmetry, PCut= 1.00D-07
 Density has only Abelian symmetry.
 E= -37.6808576636744     Delta-E=       -0.000050635809 Rises=F Damp=F
 DIIS: error= 4.83D-04 at cycle   4 NSaved=   4.
 NSaved= 4 IEnMin= 4 EnMin= -37.6808576636744     IErMin= 4 ErrMin= 4.83D-04
 ErrMax= 4.83D-04  0.00D+00 EMaxC= 1.00D-01 BMatC= 4.27D-06 BMatP= 1.04D-04
 IDIUse=3 WtCom= 9.95D-01 WtEn= 4.83D-03
 Coeff-Com: -0.280D-02 0.898D-01-0.461D+00 0.137D+01
 Coeff-En:   0.000D+00 0.000D+00 0.000D+00 0.100D+01
 Coeff:     -0.278D-02 0.894D-01-0.459D+00 0.137D+01
 Gap=     0.484 Goal=   None    Shift=    0.000
 Gap=     0.674 Goal=   None    Shift=    0.000
 RMSDP=1.91D-04 MaxDP=2.56D-03 DE=-5.06D-05 OVMax= 1.25D-03

 Cycle   5  Pass 1  IDiag  1:
 Density matrix breaks symmetry, PCut= 1.00D-07
 Density has only Abelian symmetry.
 E= -37.6808602737510     Delta-E=       -0.000002610077 Rises=F Damp=F
 DIIS: error= 6.19D-05 at cycle   5 NSaved=   5.
 NSaved= 5 IEnMin= 5 EnMin= -37.6808602737510     IErMin= 5 ErrMin= 6.19D-05
 ErrMax= 6.19D-05  0.00D+00 EMaxC= 1.00D-01 BMatC= 9.54D-08 BMatP= 4.27D-06
 IDIUse=1 WtCom= 1.00D+00 WtEn= 0.00D+00
 Coeff-Com: -0.144D-03-0.359D-02 0.475D-01-0.317D+00 0.127D+01
 Coeff:     -0.144D-03-0.359D-02 0.475D-01-0.317D+00 0.127D+01
 Gap=     0.484 Goal=   None    Shift=    0.000
 Gap=     0.674 Goal=   None    Shift=    0.000
 RMSDP=2.76D-05 MaxDP=3.68D-04 DE=-2.61D-06 OVMax= 1.85D-04

 Cycle   6  Pass 1  IDiag  1:
 Density matrix breaks symmetry, PCut= 1.00D-07
 Density has only Abelian symmetry.
 E= -37.6808603246729     Delta-E=       -0.000000050922 Rises=F Damp=F
 DIIS: error= 1.83D-06 at cycle   6 NSaved=   6.
 NSaved= 6 IEnMin= 6 EnMin= -37.6808603246729     IErMin= 6 ErrMin= 1.83D-06
 ErrMax= 1.83D-06  0.00D+00 EMaxC= 1.00D-01 BMatC= 6.15D-11 BMatP= 9.54D-08
 IDIUse=1 WtCom= 1.00D+00 WtEn= 0.00D+00
 Coeff-Com:  0.451D-04-0.221D-03-0.292D-02 0.295D-01-0.142D+00 0.112D+01
 Coeff:      0.451D-04-0.221D-03-0.292D-02 0.295D-01-0.142D+00 0.112D+01
 Gap=     0.484 Goal=   None    Shift=    0.000
 Gap=     0.674 Goal=   None    Shift=    0.000
 RMSDP=4.31D-07 MaxDP=4.32D-06 DE=-5.09D-08 OVMax= 2.28D-06

 Cycle   7  Pass 1  IDiag  1:
 Density matrix breaks symmetry, PCut= 1.00D-07
 Density has only Abelian symmetry.
 E= -37.6808603246861     Delta-E=       -0.000000000013 Rises=F Damp=F
 DIIS: error= 3.87D-08 at cycle   7 NSaved=   7.
 NSaved= 7 IEnMin= 7 EnMin= -37.6808603246861     IErMin= 7 ErrMin= 3.87D-08
 ErrMax= 3.87D-08  0.00D+00 EMaxC= 1.00D-01 BMatC= 6.12D-14 BMatP= 6.15D-11
 IDIUse=1 WtCom= 1.00D+00 WtEn= 0.00D+00
 Coeff-Com: -0.352D-05 0.166D-04 0.238D-03-0.240D-02 0.115D-01-0.106D+00
 Coeff-Com:  0.110D+01
 Coeff:     -0.352D-05 0.166D-04 0.238D-03-0.240D-02 0.115D-01-0.106D+00
 Coeff:      0.110D+01
 Gap=     0.484 Goal=   None    Shift=    0.000
 Gap=     0.674 Goal=   None    Shift=    0.000
 RMSDP=1.31D-08 MaxDP=1.31D-07 DE=-1.32D-11 OVMax= 6.01D-08

 Cycle   8  Pass 1  IDiag  1:
 Density matrix breaks symmetry, PCut= 1.00D-07
 Density has only Abelian symmetry.
 E= -37.6808603246861     Delta-E=       -0.000000000000 Rises=F Damp=F
 DIIS: error= 8.72D-09 at cycle   8 NSaved=   8.
 NSaved= 8 IEnMin= 8 EnMin= -37.6808603246861     IErMin= 8 ErrMin= 8.72D-09
 ErrMax= 8.72D-09  0.00D+00 EMaxC= 1.00D-01 BMatC= 1.20D-15 BMatP= 6.12D-14
 IDIUse=1 WtCom= 1.00D+00 WtEn= 0.00D+00
 Coeff-Com:  0.681D-06-0.344D-05-0.448D-04 0.459D-03-0.222D-02 0.208D-01
 Coeff-Com: -0.294D+00 0.127D+01
 Coeff:      0.681D-06-0.344D-05-0.448D-04 0.459D-03-0.222D-02 0.208D-01
 Coeff:     -0.294D+00 0.127D+01
 Gap=     0.484 Goal=   None    Shift=    0.000
 Gap=     0.674 Goal=   None    Shift=    0.000
 RMSDP=2.41D-09 MaxDP=2.87D-08 DE=-2.13D-14 OVMax= 1.55D-08

 Density matrix breaks symmetry, PCut= 1.00D-07
 Density has only Abelian symmetry.
 SCF Done:  E(UHF) =  -37.6808603247     A.U. after    8 cycles
            NFock=  8  Conv=0.24D-08     -V/T= 1.9995
 <Sx>= 0.0000 <Sy>= 0.0000 <Sz>= 1.0000 <S**2>= 2.0048 S= 1.0016
 <L.S>= 0.000000000000E+00
 KE= 3.770138968210D+01 PE=-8.818554881418D+01 EE= 1.280329880739D+01
 Annihilation of the first spin contaminant:
 S**2 before annihilation     2.0048,   after     2.0000
 Leave Link  502 at Tue Dec 14 12:31:27 2021, MaxMem=  1610612736 cpu:               2.2 elap:               0.3
 (Enter /usr/local/g16reva03/legacy_cpu/g16/l801.exe)
 Range of M.O.s used for correlation:     1    15
 NBasis=    15 NAE=     4 NBE=     2 NFC=     0 NFV=     0
 NROrb=     15 NOA=     4 NOB=     2 NVA=    11 NVB=    13
 Leave Link  801 at Tue Dec 14 12:31:28 2021, MaxMem=  1610612736 cpu:               0.2 elap:               0.0
 (Enter /usr/local/g16reva03/legacy_cpu/g16/l914.exe)
 UHF ground state
 Doing stability rather than CIS.
 Keep R1 and R2 ints in memory in symmetry-blocked form, NReq=1654490.
 FoFCou: FMM=F IPFlag=           0 FMFlag=           0 FMFlg1=           0
         NFxFlg=           0 DoJE=F BraDBF=F KetDBF=F FulRan=T
         wScrn=  0.000000 ICntrl=       600 IOpCl=  0 I1Cent=           0 NGrid=           0
         NMat0=    1 NMatS0=    120 NMatT0=    0 NMatD0=    1 NMtDS0=    0 NMtDT0=    0
 Petite list used in FoFCou.
 MDV=  1610612736 DFT=F DoStab=T Mixed=F DoRPA=F DoScal=F NonHer=F
 Making orbital integer symmetry assigments:
 Orbital symmetries:
 Alpha Orbitals:
       Occupied  (A1G) (?A) (?B) (?B)
       Virtual   (?B) (?B) (?B) (?A) (?B) (T2G) (?A) (T2G) (T2G)
                 (?A) (A1G)
 Beta  Orbitals:
       Occupied  (A1G) (?A)
       Virtual   (?B) (?B) (?B) (?A) (?B) (?B) (?B) (?A) (T2G)
                 (T2G) (T2G) (?A) (A1G)
    24 initial guesses have been made.
 Convergence on wavefunction:    0.001000000000000
 Davidson Disk Diagonalization:  ConvIn= 1.00D-03 SkipCon=T Conv= 1.00D-03.
 Max sub-space:   140 roots to seek:    24 dimension of matrix:           70
 Iteration     1 Dimension    24 NMult     0 NNew     24
 CISAX will form    24 AO SS matrices at one time.
 NMat=    24 NSing=    24 JSym2X= 2.
 Excitation Energies [eV] at current iteration:
 Root      1 :     0.223120993402086
 Root      2 :     0.223120993402135
 Root      3 :     2.896315994917944
 Root      4 :     8.161621416505923
 Root      5 :     8.161621416505973
 Root      6 :    16.052931282839140
 Root      7 :    16.806004848328150
 Root      8 :    16.806004848328170
 Root      9 :    19.147267168654930
 Root     10 :    19.326042769107540
 Root     11 :    19.326042769107570
 Root     12 :    20.586431070391310
 Root     13 :    20.586431070391410
 Root     14 :    21.227132155784500
 Root     15 :    25.084795634963200
 Root     16 :    26.679488418147540
 Root     17 :    26.679488418147590
 Root     18 :    27.938271780224860
 Root     19 :    30.767476043240360
 Root     20 :    30.767476043240450
 Root     21 :    31.770459779829320
 Root     22 :    36.614522814879390
 Root     23 :    50.307403851076140
 Root     24 :    50.307403851076140
 Iteration     2 Dimension    47 NMult    24 NNew     23
 CISAX will form    23 AO SS matrices at one time.
 NMat=    23 NSing=    23 JSym2X= 2.
 Root      1 not converged, maximum delta is    0.285763953360344
 Root      2 not converged, maximum delta is    0.285763953360344
 Root      3 not converged, maximum delta is    0.070631244970315
 Excitation Energies [eV] at current iteration:
 Root      1 :     0.000006613371350   Change is   -0.223114380030736
 Root      2 :     0.000006613371423   Change is   -0.223114380030712
 Root      3 :     2.404724968101231   Change is   -0.491591026816713
 Root      4 :     7.588537510999339   Change is   -0.573083905506585
 Root      5 :     7.588537510999496   Change is   -0.573083905506476
 Root      6 :    15.396690433384590   Change is   -0.656240849454547
 Root      7 :    16.726490798646730   Change is   -0.079514049681443
 Root      8 :    16.726490798646760   Change is   -0.079514049681389
 Root      9 :    19.114914765457940   Change is   -0.032352403196988
 Root     10 :    19.315837546743150   Change is   -0.010205222364397
 Root     11 :    19.315837546743300   Change is   -0.010205222364265
 Root     12 :    20.542412159334220   Change is   -0.044018911057087
 Root     13 :    20.542412159334290   Change is   -0.044018911057123
 Root     14 :    21.227132155784490   Change is   -0.000000000000006
 Root     15 :    24.864142273515220   Change is   -0.220653361447984
 Root     16 :    26.571904783077560   Change is   -0.107583635069973
 Root     17 :    26.571904783077680   Change is   -0.107583635069907
 Root     18 :    27.870022516564340   Change is   -0.068249263660513
 Root     19 :    30.705630802144680   Change is   -0.061845241095687
 Root     20 :    30.705630802144760   Change is   -0.061845241095687
 Root     21 :    31.661578966302690   Change is   -0.108880813526625
 Root     22 :    36.208911077982220   Change is   -0.405611736897159
 Root     23 :    45.308009529970200   Change is   -4.999394321105934
 Root     24 :    45.308009529970250   Change is   -4.999394321105886
 Iteration     3 Dimension    50 NMult    47 NNew      3
 CISAX will form     3 AO SS matrices at one time.
 NMat=     3 NSing=     3 JSym2X= 2.
 Root      1 not converged, maximum delta is    0.386183420348008
 Root      2 not converged, maximum delta is    0.386183420348008
 Root      3 has converged.
 Excitation Energies [eV] at current iteration:
 Root      1 :    -0.000000015883215   Change is   -0.000006629254565
 Root      2 :    -0.000000015883185   Change is   -0.000006629254608
 Root      3 :     2.404719761448050   Change is   -0.000005206653181
 Iteration     4 Dimension    52 NMult    50 NNew      2
 CISAX will form     2 AO SS matrices at one time.
 NMat=     2 NSing=     2 JSym2X= 2.
 Root      1 has converged.
 Root      2 has converged.
 Root      3 has converged.
 Excitation Energies [eV] at current iteration:
 Root      1 :    -0.000000020942043   Change is   -0.000000005058828
 Root      2 :    -0.000000020942016   Change is   -0.000000005058831
 Root      3 :     2.404719761447990   Change is   -0.000000000000060
 Convergence achieved on expansion vectors.
 ***********************************************************************
 Stability analysis using <AA,BB:AA,BB> singles matrix:
 ***********************************************************************
 1PDM for each excited state written to RWF  633
 Ground to excited state transition densities written to RWF  633

 Eigenvectors of the stability matrix:
 
 Excited state symmetry could not be determined.
 Eigenvector   1:  3.008-?Sym  Eigenvalue=-0.0000000  <S**2>=2.013
      3A ->  5A       -0.28143
      4A ->  5A        0.94148
      4A ->  9A        0.16707
 
 Excited state symmetry could not be determined.
 Eigenvector   2:  3.008-?Sym  Eigenvalue=-0.0000000  <S**2>=2.013
      3A ->  5A        0.94148
      3A ->  9A        0.16707
      4A ->  5A        0.28143
 
 Excited state symmetry could not be determined.
 Eigenvector   3:  4.064-?Sym  Eigenvalue= 0.0883718  <S**2>=3.879
      2A ->  5A       -0.51288
      2A ->  9A       -0.13477
      2B ->  3B        0.82146
      2B ->  7B        0.18442
 The wavefunction is stable under the perturbations considered.
 Leave Link  914 at Tue Dec 14 12:31:28 2021, MaxMem=  1610612736 cpu:               1.6 elap:               0.2
 (Enter /usr/local/g16reva03/legacy_cpu/g16/l601.exe)
 Copying SCF densities to generalized density rwf, IOpCl= 1 IROHF=0.
 SCF density gives NOpUse=  8 NOpAll= 48.
 Marking SCF density as not fully symmetric.

 **********************************************************************

            Population analysis using the SCF density.

 **********************************************************************

 Orbital symmetries:
 Alpha Orbitals:
       Occupied  (A1G) (?A) (?B) (?B)
       Virtual   (?B) (?B) (?B) (?A) (?B) (T2G) (?A) (T2G) (T2G)
                 (?A) (A1G)
 Beta  Orbitals:
       Occupied  (A1G) (?A)
       Virtual   (?B) (?B) (?B) (?A) (?B) (?B) (?B) (?A) (T2G)
                 (T2G) (T2G) (?A) (A1G)
 Unable to determine electronic state:  an orbital has unidentified symmetry.
 Alpha  occ. eigenvalues --  -11.33309  -0.82018  -0.42928  -0.42928
 Alpha virt. eigenvalues --    0.05473   0.70763   0.70763   0.74126   0.78768
 Alpha virt. eigenvalues --    1.90179   1.90179   1.93416   1.93416   1.94657
 Alpha virt. eigenvalues --    4.15821
  Beta  occ. eigenvalues --  -11.29038  -0.57535
  Beta virt. eigenvalues --    0.09857   0.15764   0.15764   0.80999   0.81858
  Beta virt. eigenvalues --    0.87131   0.87131   2.02437   2.04083   2.04083
  Beta virt. eigenvalues --    2.09509   2.09509   4.22115
          Condensed to atoms (all electrons):
               1
     1  C    6.000000
          Atomic-Atomic Spin Densities.
               1
     1  C    2.000000
 Mulliken charges and spin densities:
               1          2
     1  C   -0.000000   2.000000
 Sum of Mulliken charges =  -0.00000   2.00000
 Mulliken charges and spin densities with hydrogens summed into heavy atoms:
               1          2
     1  C   -0.000000   2.000000
 Electronic spatial extent (au):  <R**2>=             13.1459
 Charge=             -0.0000 electrons
 Dipole moment (field-independent basis, Debye):
    X=              0.0000    Y=              0.0000    Z=              0.0000  Tot=              0.0000
 Quadrupole moment (field-independent basis, Debye-Ang):
   XX=             -6.5163   YY=             -4.6491   ZZ=             -6.5163
   XY=             -0.0000   XZ=              0.0000   YZ=              0.0000
 Traceless Quadrupole moment (field-independent basis, Debye-Ang):
   XX=             -0.6224   YY=              1.2448   ZZ=             -0.6224
   XY=             -0.0000   XZ=              0.0000   YZ=              0.0000
 Octapole moment (field-independent basis, Debye-Ang**2):
  XXX=              0.0000  YYY=              0.0000  ZZZ=              0.0000  XYY=              0.0000
  XXY=              0.0000  XXZ=              0.0000  XZZ=              0.0000  YZZ=              0.0000
  YYZ=              0.0000  XYZ=              0.0000
 Hexadecapole moment (field-independent basis, Debye-Ang**3):
 XXXX=             -7.2362 YYYY=             -4.1104 ZZZZ=             -7.2362 XXXY=             -0.0000
 XXXZ=              0.0000 YYYX=             -0.0000 YYYZ=              0.0000 ZZZX=              0.0000
 ZZZY=              0.0000 XXYY=             -1.8909 XXZZ=             -2.4121 YYZZ=             -1.8909
 XXYZ=              0.0000 YYXZ=              0.0000 ZZXY=             -0.0000
 N-N= 0.000000000000D+00 E-N=-8.818554882305D+01  KE= 3.770138968210D+01
 Symmetry AG   KE= 3.517871186240D+01
 Symmetry B1G  KE= 2.106936614474D-35
 Symmetry B2G  KE=-6.019302768074D-52
 Symmetry B3G  KE= 2.160340335240D-35
 Symmetry AU   KE= 0.000000000000D+00
 Symmetry B1U  KE= 1.261338909849D+00
 Symmetry B2U  KE= 4.718546205903D-33
 Symmetry B3U  KE= 1.261338909849D+00
 Symmetry AG   SP= 1.830350107590D-15
 Symmetry B1G  SP= 6.264017804863D-37
 Symmetry B2G  SP= 2.763965556769D-52
 Symmetry B3G  SP=-2.933374789206D-37
 Symmetry AU   SP= 0.000000000000D+00
 Symmetry B1U  SP= 1.000000000000D+00
 Symmetry B2U  SP= 3.740902757425D-33
 Symmetry B3U  SP= 1.000000000000D+00
                          Isotropic Fermi Contact Couplings
        Atom                 a.u.       MegaHertz       Gauss      10(-4) cm-1
     1  C(13)              0.00181       1.01963       0.36383       0.34011
 --------------------------------------------------------
       Center         ----  Spin Dipole Couplings  ----
                      3XX-RR        3YY-RR        3ZZ-RR
 --------------------------------------------------------
     1   Atom        0.654316     -1.308632      0.654316
 --------------------------------------------------------
                        XY            XZ            YZ
 --------------------------------------------------------
     1   Atom        0.000000      0.000000      0.000000
 --------------------------------------------------------


 ---------------------------------------------------------------------------------
              Anisotropic Spin Dipole Couplings in Principal Axis System
 ---------------------------------------------------------------------------------

       Atom             a.u.   MegaHertz   Gauss  10(-4) cm-1        Axes

              Baa    -1.3086  -175.606   -62.661   -58.576 -0.0000  1.0000  0.0000
     1 C(13)  Bbb     0.6543    87.803    31.330    29.288  1.0000  0.0000  0.0000
              Bcc     0.6543    87.803    31.330    29.288  0.0000  0.0000  1.0000
 

 ---------------------------------------------------------------------------------

 No NMR shielding tensors so no spin-rotation constants.
 Leave Link  601 at Tue Dec 14 12:31:28 2021, MaxMem=  1610612736 cpu:               2.6 elap:               0.3
 (Enter /usr/local/g16reva03/legacy_cpu/g16/l9999.exe)
 1\1\GINC-NODE458\Stability\UHF\6-31G(d)\C1(3)\ROOT\14-Dec-2021\0\\#P u
 hf/6-31g(d) geom=connectivity stable\\Stability test for a triplet car
 bon\\0,3\C\\Version=EM64L-G16RevA.03\HF=-37.6808603\S2=2.004769\S2-1=0
 .\S2A=2.\RMSD=2.406e-09\Dipole=0.,0.,0.\Quadrupole=-0.4627343,0.925468
 7,-0.4627343,0.,0.,0.\PG=OH [O(C1)]\\@


 "I COULD HAVE DONE IT IN A MUCH MORE COMPLICATED WAY"
 SAID THE RED QUEEN, IMMENSELY PROUD.

                                      -- LEWIS CARROLL
 Job cpu time:       0 days  0 hours  0 minutes 14.8 seconds.
 Elapsed time:       0 days  0 hours  0 minutes  2.1 seconds.
 File lengths (MBytes):  RWF=     72 Int=      0 D2E=      0 Chk=      8 Scr=      8
 Normal termination of Gaussian 16 at Tue Dec 14 12:31:29 2021.
