************************************************************
This is node137 of the Cardinal research cluster.
Date: Tue Dec 14 12:30:59 EST 2021
************************************************************
 Set GAUSS_MDEF to "12GB".
 Set GAUSS_PDEF to "8".
 Entering Gaussian System, Link 0=g16
 Initial command:
 /usr/local/g16reva03/legacy_cpu/g16/l1.exe "/scratch/global/amkiny01/Gau-19125.inp" -scrdir="/scratch/global/amkiny01/"
 Default is to use a total of   8 processors:
                                8 via shared-memory
                                1 via Linda
 Entering Link 1 = /usr/local/g16reva03/legacy_cpu/g16/l1.exe PID=     19126.
  
 Copyright (c) 1988,1990,1992,1993,1995,1998,2003,2009,2016,
            Gaussian, Inc.  All Rights Reserved.
  
 This is part of the Gaussian(R) 16 program.  It is based on
 the Gaussian(R) 09 system (copyright 2009, Gaussian, Inc.),
 the Gaussian(R) 03 system (copyright 2003, Gaussian, Inc.),
 the Gaussian(R) 98 system (copyright 1998, Gaussian, Inc.),
 the Gaussian(R) 94 system (copyright 1995, Gaussian, Inc.),
 the Gaussian 92(TM) system (copyright 1992, Gaussian, Inc.),
 the Gaussian 90(TM) system (copyright 1990, Gaussian, Inc.),
 the Gaussian 88(TM) system (copyright 1988, Gaussian, Inc.),
 the Gaussian 86(TM) system (copyright 1986, Carnegie Mellon
 University), and the Gaussian 82(TM) system (copyright 1983,
 Carnegie Mellon University). Gaussian is a federally registered
 trademark of Gaussian, Inc.
  
 This software contains proprietary and confidential information,
 including trade secrets, belonging to Gaussian, Inc.
  
 This software is provided under written license and may be
 used, copied, transmitted, or stored only in accord with that
 written license.
  
 The following legend is applicable only to US Government
 contracts under FAR:
  
                    RESTRICTED RIGHTS LEGEND
  
 Use, reproduction and disclosure by the US Government is
 subject to restrictions as set forth in subparagraphs (a)
 and (c) of the Commercial Computer Software - Restricted
 Rights clause in FAR 52.227-19.
  
 Gaussian, Inc.
 340 Quinnipiac St., Bldg. 40, Wallingford CT 06492
  
  
 ---------------------------------------------------------------
 Warning -- This program may not be used in any manner that
 competes with the business of Gaussian, Inc. or will provide
 assistance to any competitor of Gaussian, Inc.  The licensee
 of this program is prohibited from giving any competitor of
 Gaussian, Inc. access to this program.  By using this program,
 the user acknowledges that Gaussian, Inc. is engaged in the
 business of creating and licensing software in the field of
 computational chemistry and represents and warrants to the
 licensee that it is not a competitor of Gaussian, Inc. and that
 it will not use this program in any manner prohibited above.
 ---------------------------------------------------------------
  

 Cite this work as:
 Gaussian 16, Revision A.03,
 M. J. Frisch, G. W. Trucks, H. B. Schlegel, G. E. Scuseria, 
 M. A. Robb, J. R. Cheeseman, G. Scalmani, V. Barone, 
 G. A. Petersson, H. Nakatsuji, X. Li, M. Caricato, A. V. Marenich, 
 J. Bloino, B. G. Janesko, R. Gomperts, B. Mennucci, H. P. Hratchian, 
 J. V. Ortiz, A. F. Izmaylov, J. L. Sonnenberg, D. Williams-Young, 
 F. Ding, F. Lipparini, F. Egidi, J. Goings, B. Peng, A. Petrone, 
 T. Henderson, D. Ranasinghe, V. G. Zakrzewski, J. Gao, N. Rega, 
 G. Zheng, W. Liang, M. Hada, M. Ehara, K. Toyota, R. Fukuda, 
 J. Hasegawa, M. Ishida, T. Nakajima, Y. Honda, O. Kitao, H. Nakai, 
 T. Vreven, K. Throssell, J. A. Montgomery, Jr., J. E. Peralta, 
 F. Ogliaro, M. J. Bearpark, J. J. Heyd, E. N. Brothers, K. N. Kudin, 
 V. N. Staroverov, T. A. Keith, R. Kobayashi, J. Normand, 
 K. Raghavachari, A. P. Rendell, J. C. Burant, S. S. Iyengar, 
 J. Tomasi, M. Cossi, J. M. Millam, M. Klene, C. Adamo, R. Cammi, 
 J. W. Ochterski, R. L. Martin, K. Morokuma, O. Farkas, 
 J. B. Foresman, and D. J. Fox, Gaussian, Inc., Wallingford CT, 2016.
 
 ******************************************
 Gaussian 16:  EM64L-G16RevA.03 25-Dec-2016
                14-Dec-2021 
 ******************************************
 %chk=carbon_scf_stability_calcs_singlet.chk
 ----------------------------------------
 #P rhf/6-31g(d) geom=connectivity stable
 ----------------------------------------
 1/38=1,57=2,172=1/1;
 2/12=2,17=6,18=5,40=1/2;
 3/5=1,6=6,7=1,11=1,25=1,30=1,116=1/1,2,3;
 4//1;
 5/5=2,38=5/2;
 8/6=1,10=90,11=11/1;
 9/8=-1,42=1/14;
 6/7=2,8=2,9=2,10=2,28=1/1;
 99/5=1,9=1/99;
 Leave Link    1 at Tue Dec 14 12:31:00 2021, MaxMem=           0 cpu:               2.3 elap:               0.3
 (Enter /usr/local/g16reva03/legacy_cpu/g16/l101.exe)
 ----------------------------------------
 Stability test for a singlet carbon atom
 ----------------------------------------
 Symbolic Z-matrix:
 Charge =  0 Multiplicity = 1
 C
 
 ITRead=  0
 MicOpt= -1
 NAtoms=      1 NQM=        1 NQMF=       0 NMMI=      0 NMMIF=      0
                NMic=       0 NMicF=      0.
                    Isotopes and Nuclear Properties:
 (Nuclear quadrupole moments (NQMom) in fm**2, nuclear magnetic moments (NMagM)
  in nuclear magnetons)

  Atom         1
 IAtWgt=          12
 AtmWgt=  12.0000000
 NucSpn=           0
 AtZEff=  -0.0000000
 NQMom=    0.0000000
 NMagM=    0.0000000
 AtZNuc=   6.0000000
 Leave Link  101 at Tue Dec 14 12:31:00 2021, MaxMem=  1610612736 cpu:               2.5 elap:               0.4
 (Enter /usr/local/g16reva03/legacy_cpu/g16/l202.exe)
                          Input orientation:                          
 ---------------------------------------------------------------------
 Center     Atomic      Atomic             Coordinates (Angstroms)
 Number     Number       Type             X           Y           Z
 ---------------------------------------------------------------------
      1          6           0        0.000000    0.000000    0.000000
 ---------------------------------------------------------------------
 Stoichiometry    C
 Framework group  OH[O(C)]
 Deg. of freedom     0
 Full point group                 OH      NOp  48
 Largest Abelian subgroup         D2H     NOp   8
 Largest concise Abelian subgroup C1      NOp   1
                         Standard orientation:                         
 ---------------------------------------------------------------------
 Center     Atomic      Atomic             Coordinates (Angstroms)
 Number     Number       Type             X           Y           Z
 ---------------------------------------------------------------------
      1          6           0        0.000000    0.000000    0.000000
 ---------------------------------------------------------------------
 Leave Link  202 at Tue Dec 14 12:31:00 2021, MaxMem=  1610612736 cpu:               1.0 elap:               0.2
 (Enter /usr/local/g16reva03/legacy_cpu/g16/l301.exe)
 Standard basis: 6-31G(d) (6D, 7F)
 Ernie: Thresh=  0.10000D-02 Tol=  0.10000D-05 Strict=F.
 There are     6 symmetry adapted cartesian basis functions of AG  symmetry.
 There are     1 symmetry adapted cartesian basis functions of B1G symmetry.
 There are     1 symmetry adapted cartesian basis functions of B2G symmetry.
 There are     1 symmetry adapted cartesian basis functions of B3G symmetry.
 There are     0 symmetry adapted cartesian basis functions of AU  symmetry.
 There are     2 symmetry adapted cartesian basis functions of B1U symmetry.
 There are     2 symmetry adapted cartesian basis functions of B2U symmetry.
 There are     2 symmetry adapted cartesian basis functions of B3U symmetry.
 There are     6 symmetry adapted basis functions of AG  symmetry.
 There are     1 symmetry adapted basis functions of B1G symmetry.
 There are     1 symmetry adapted basis functions of B2G symmetry.
 There are     1 symmetry adapted basis functions of B3G symmetry.
 There are     0 symmetry adapted basis functions of AU  symmetry.
 There are     2 symmetry adapted basis functions of B1U symmetry.
 There are     2 symmetry adapted basis functions of B2U symmetry.
 There are     2 symmetry adapted basis functions of B3U symmetry.
    15 basis functions,    28 primitive gaussians,    15 cartesian basis functions
     3 alpha electrons        3 beta electrons
       nuclear repulsion energy         0.0000000000 Hartrees.
 IExCor=    0 DFT=F Ex=HF Corr=None ExCW=0 ScaHFX=  1.000000
 ScaDFX=  1.000000  1.000000  1.000000  1.000000 ScalE2=  1.000000  1.000000
 IRadAn=      5 IRanWt=     -1 IRanGd=            0 ICorTp=0 IEmpDi=  4
 NAtoms=    1 NActive=    1 NUniq=    1 SFac= 1.00D+00 NAtFMM=   60 NAOKFM=F Big=F
 Integral buffers will be    131072 words long.
 Raffenetti 1 integral format.
 Two-electron integral symmetry is turned on.
 Leave Link  301 at Tue Dec 14 12:31:01 2021, MaxMem=  1610612736 cpu:               1.9 elap:               0.3
 (Enter /usr/local/g16reva03/legacy_cpu/g16/l302.exe)
 NPDir=0 NMtPBC=     1 NCelOv=     1 NCel=       1 NClECP=     1 NCelD=      1
         NCelK=      1 NCelE2=     1 NClLst=     1 CellRange=     0.0.
 One-electron integrals computed using PRISM.
 One-electron integral symmetry used in STVInt
 NBasis=    15 RedAO= T EigKep=  4.76D-02  NBF=     6     1     1     1     0     2     2     2
 NBsUse=    15 1.00D-06 EigRej= -1.00D+00 NBFU=     6     1     1     1     0     2     2     2
 Leave Link  302 at Tue Dec 14 12:31:01 2021, MaxMem=  1610612736 cpu:               2.3 elap:               0.3
 (Enter /usr/local/g16reva03/legacy_cpu/g16/l303.exe)
 DipDrv:  MaxL=1.
 Leave Link  303 at Tue Dec 14 12:31:01 2021, MaxMem=  1610612736 cpu:               0.6 elap:               0.1
 (Enter /usr/local/g16reva03/legacy_cpu/g16/l401.exe)
 ExpMin= 1.69D-01 ExpMax= 3.05D+03 ExpMxC= 4.57D+02 IAcc=3 IRadAn=         5 AccDes= 0.00D+00
 Harris functional with IExCor=  205 and IRadAn=       5 diagonalized for initial guess.
 HarFok:  IExCor=  205 AccDes= 0.00D+00 IRadAn=         5 IDoV= 1 UseB2=F ITyADJ=14
 ICtDFT=  3500011 ScaDFX=  1.000000  1.000000  1.000000  1.000000
 FoFCou: FMM=F IPFlag=           0 FMFlag=      100000 FMFlg1=           0
         NFxFlg=           0 DoJE=T BraDBF=F KetDBF=T FulRan=T
         wScrn=  0.000000 ICntrl=       500 IOpCl=  0 I1Cent=   200000004 NGrid=           0
         NMat0=    1 NMatS0=      1 NMatT0=    0 NMatD0=    1 NMtDS0=    0 NMtDT0=    0
 Petite list used in FoFCou.
 Harris En= -37.5191480453709    
 JPrj=0 DoOrth=F DoCkMO=F.
 Initial guess orbital symmetries:
       Occupied  (A1G) (A1G) (T1U)
       Virtual   (T1U) (T1U) (T1U) (T1U) (T1U) (A1G) (T2G) (T2G)
                 (T2G) (EG) (EG) (A1G)
 Leave Link  401 at Tue Dec 14 12:31:02 2021, MaxMem=  1610612736 cpu:               5.6 elap:               0.9
 (Enter /usr/local/g16reva03/legacy_cpu/g16/l502.exe)
 Keep R1 ints in memory in symmetry-blocked form, NReq=1654150.
 FoFCou: FMM=F IPFlag=           0 FMFlag=           0 FMFlg1=           0
         NFxFlg=           0 DoJE=F BraDBF=F KetDBF=F FulRan=T
         wScrn=  0.000000 ICntrl=       600 IOpCl=  0 I1Cent=           0 NGrid=           0
         NMat0=    1 NMatS0=    120 NMatT0=    0 NMatD0=    1 NMtDS0=    0 NMtDT0=    0
 Petite list used in FoFCou.
 Closed shell SCF:
 Using DIIS extrapolation, IDIIS=  1040.
 NGot=  1610612736 LenX=  1610607957 LenY=  1610607075
 Requested convergence on RMS density matrix=1.00D-08 within 128 cycles.
 Requested convergence on MAX density matrix=1.00D-06.
 Requested convergence on             energy=1.00D-06.
 No special actions if energy rises.

 Cycle   1  Pass 1  IDiag  1:
 Density matrix breaks symmetry, PCut= 1.00D-07
 Density has only Abelian symmetry.
 E= -37.5832810137644    
 DIIS: error= 8.26D-02 at cycle   1 NSaved=   1.
 NSaved= 1 IEnMin= 1 EnMin= -37.5832810137644     IErMin= 1 ErrMin= 8.26D-02
 ErrMax= 8.26D-02  0.00D+00 EMaxC= 1.00D-01 BMatC= 3.33D-02 BMatP= 3.33D-02
 IDIUse=3 WtCom= 1.74D-01 WtEn= 8.26D-01
 Coeff-Com:  0.100D+01
 Coeff-En:   0.100D+01
 Coeff:      0.100D+01
 Gap=     0.427 Goal=   None    Shift=    0.000
 GapD=    0.427 DampG=2.000 DampE=0.500 DampFc=1.0000 IDamp=-1.
 RMSDP=5.41D-03 MaxDP=4.52D-02              OVMax= 1.12D-02

 Cycle   2  Pass 1  IDiag  1:
 Density matrix breaks symmetry, PCut= 1.00D-07
 Density has only Abelian symmetry.
 E= -37.5885010038276     Delta-E=       -0.005219990063 Rises=F Damp=F
 DIIS: error= 4.20D-03 at cycle   2 NSaved=   2.
 NSaved= 2 IEnMin= 2 EnMin= -37.5885010038276     IErMin= 2 ErrMin= 4.20D-03
 ErrMax= 4.20D-03  0.00D+00 EMaxC= 1.00D-01 BMatC= 1.16D-04 BMatP= 3.33D-02
 IDIUse=3 WtCom= 9.58D-01 WtEn= 4.20D-02
 Coeff-Com: -0.572D-01 0.106D+01
 Coeff-En:   0.000D+00 0.100D+01
 Coeff:     -0.548D-01 0.105D+01
 Gap=     0.410 Goal=   None    Shift=    0.000
 RMSDP=5.62D-04 MaxDP=4.15D-03 DE=-5.22D-03 OVMax= 1.73D-03

 Cycle   3  Pass 1  IDiag  1:
 Density matrix breaks symmetry, PCut= 1.00D-07
 Density has only Abelian symmetry.
 E= -37.5885547129148     Delta-E=       -0.000053709087 Rises=F Damp=F
 DIIS: error= 4.06D-04 at cycle   3 NSaved=   3.
 NSaved= 3 IEnMin= 3 EnMin= -37.5885547129148     IErMin= 3 ErrMin= 4.06D-04
 ErrMax= 4.06D-04  0.00D+00 EMaxC= 1.00D-01 BMatC= 1.59D-06 BMatP= 1.16D-04
 IDIUse=3 WtCom= 9.96D-01 WtEn= 4.06D-03
 Coeff-Com:  0.651D-02-0.164D+00 0.116D+01
 Coeff-En:   0.000D+00 0.000D+00 0.100D+01
 Coeff:      0.648D-02-0.163D+00 0.116D+01
 Gap=     0.409 Goal=   None    Shift=    0.000
 RMSDP=1.61D-04 MaxDP=1.44D-03 DE=-5.37D-05 OVMax= 7.46D-04

 Cycle   4  Pass 1  IDiag  1:
 Density matrix breaks symmetry, PCut= 1.00D-07
 Density has only Abelian symmetry.
 E= -37.5885577241775     Delta-E=       -0.000003011263 Rises=F Damp=F
 DIIS: error= 8.64D-05 at cycle   4 NSaved=   4.
 NSaved= 4 IEnMin= 4 EnMin= -37.5885577241775     IErMin= 4 ErrMin= 8.64D-05
 ErrMax= 8.64D-05  0.00D+00 EMaxC= 1.00D-01 BMatC= 6.87D-08 BMatP= 1.59D-06
 IDIUse=1 WtCom= 1.00D+00 WtEn= 0.00D+00
 Coeff-Com:  0.609D-03-0.198D-02-0.265D+00 0.127D+01
 Coeff:      0.609D-03-0.198D-02-0.265D+00 0.127D+01
 Gap=     0.409 Goal=   None    Shift=    0.000
 RMSDP=4.26D-05 MaxDP=3.41D-04 DE=-3.01D-06 OVMax= 1.80D-04

 Cycle   5  Pass 1  IDiag  1:
 Density matrix breaks symmetry, PCut= 1.00D-07
 Density has only Abelian symmetry.
 E= -37.5885578725768     Delta-E=       -0.000000148399 Rises=F Damp=F
 DIIS: error= 3.03D-06 at cycle   5 NSaved=   5.
 NSaved= 5 IEnMin= 5 EnMin= -37.5885578725768     IErMin= 5 ErrMin= 3.03D-06
 ErrMax= 3.03D-06  0.00D+00 EMaxC= 1.00D-01 BMatC= 9.31D-11 BMatP= 6.87D-08
 IDIUse=1 WtCom= 1.00D+00 WtEn= 0.00D+00
 Coeff-Com: -0.168D-03 0.216D-02 0.200D-01-0.135D+00 0.111D+01
 Coeff:     -0.168D-03 0.216D-02 0.200D-01-0.135D+00 0.111D+01
 Gap=     0.409 Goal=   None    Shift=    0.000
 RMSDP=9.42D-07 MaxDP=8.43D-06 DE=-1.48D-07 OVMax= 2.40D-06

 Cycle   6  Pass 1  IDiag  1:
 Density matrix breaks symmetry, PCut= 1.00D-07
 Density has only Abelian symmetry.
 E= -37.5885578726519     Delta-E=       -0.000000000075 Rises=F Damp=F
 DIIS: error= 1.27D-07 at cycle   6 NSaved=   6.
 NSaved= 6 IEnMin= 6 EnMin= -37.5885578726519     IErMin= 6 ErrMin= 1.27D-07
 ErrMax= 1.27D-07  0.00D+00 EMaxC= 1.00D-01 BMatC= 7.77D-14 BMatP= 9.31D-11
 IDIUse=1 WtCom= 1.00D+00 WtEn= 0.00D+00
 Coeff-Com:  0.144D-04-0.196D-03-0.140D-02 0.104D-01-0.105D+00 0.110D+01
 Coeff:      0.144D-04-0.196D-03-0.140D-02 0.104D-01-0.105D+00 0.110D+01
 Gap=     0.409 Goal=   None    Shift=    0.000
 RMSDP=1.17D-08 MaxDP=5.65D-08 DE=-7.50D-11 OVMax= 2.21D-08

 Cycle   7  Pass 1  IDiag  1:
 Density matrix breaks symmetry, PCut= 1.00D-07
 Density has only Abelian symmetry.
 E= -37.5885578726519     Delta-E=       -0.000000000000 Rises=F Damp=F
 DIIS: error= 4.81D-09 at cycle   7 NSaved=   7.
 NSaved= 7 IEnMin= 7 EnMin= -37.5885578726519     IErMin= 7 ErrMin= 4.81D-09
 ErrMax= 4.81D-09  0.00D+00 EMaxC= 1.00D-01 BMatC= 2.58D-16 BMatP= 7.77D-14
 IDIUse=1 WtCom= 1.00D+00 WtEn= 0.00D+00
 Coeff-Com: -0.974D-06 0.127D-04 0.119D-03-0.828D-03 0.841D-02-0.115D+00
 Coeff-Com:  0.111D+01
 Coeff:     -0.974D-06 0.127D-04 0.119D-03-0.828D-03 0.841D-02-0.115D+00
 Coeff:      0.111D+01
 Gap=     0.409 Goal=   None    Shift=    0.000
 RMSDP=1.16D-09 MaxDP=7.19D-09 DE=-5.68D-14 OVMax= 2.58D-09

 Density matrix breaks symmetry, PCut= 1.00D-07
 Density has only Abelian symmetry.
 SCF Done:  E(RHF) =  -37.5885578727     A.U. after    7 cycles
            NFock=  7  Conv=0.12D-08     -V/T= 1.9996
 KE= 3.760479231437D+01 PE=-8.798544067226D+01 EE= 1.279209048524D+01
 Leave Link  502 at Tue Dec 14 12:31:03 2021, MaxMem=  1610612736 cpu:               3.6 elap:               0.6
 (Enter /usr/local/g16reva03/legacy_cpu/g16/l801.exe)
 Range of M.O.s used for correlation:     1    15
 NBasis=    15 NAE=     3 NBE=     3 NFC=     0 NFV=     0
 NROrb=     15 NOA=     3 NOB=     3 NVA=    12 NVB=    12
 Leave Link  801 at Tue Dec 14 12:31:04 2021, MaxMem=  1610612736 cpu:               0.7 elap:               0.1
 (Enter /usr/local/g16reva03/legacy_cpu/g16/l914.exe)
 RHF ground state
 Doing stability rather than CIS.
 Keep R1 and R2 ints in memory in symmetry-blocked form, NReq=1654490.
 FoFCou: FMM=F IPFlag=           0 FMFlag=           0 FMFlg1=           0
         NFxFlg=           0 DoJE=F BraDBF=F KetDBF=F FulRan=T
         wScrn=  0.000000 ICntrl=       600 IOpCl=  0 I1Cent=           0 NGrid=           0
         NMat0=    1 NMatS0=    120 NMatT0=    0 NMatD0=    1 NMtDS0=    0 NMtDT0=    0
 Petite list used in FoFCou.
 MDV=  1610612736 DFT=F DoStab=T Mixed=F DoRPA=F DoScal=F NonHer=F
 Making orbital integer symmetry assigments:
 Orbital symmetries:
       Occupied  (A1G) (A1G) (?A)
       Virtual   (?A) (?A) (?A) (?B) (?A) (?A) (T2G) (?B) (T2G)
                 (T2G) (?B) (?B)
    48 initial guesses have been made.
 Convergence on wavefunction:    0.001000000000000
 Davidson Disk Diagonalization:  ConvIn= 1.00D-03 SkipCon=T Conv= 1.00D-03.
 Max sub-space:   144 roots to seek:    48 dimension of matrix:           72
 Iteration     1 Dimension    48 NMult     0 NNew     48
 CISAX will form    48 AO SS matrices at one time.
 NMat=    48 NSing=    24 JSym2X= 2.
 New state      1 was old state      2
 New state      2 was old state      4
 New state      3 was old state      1
 New state      4 was old state      3
 New state      5 was old state      8
 New state      7 was old state     10
 New state      8 was old state      5
 New state      9 was old state      7
 New state     10 was old state     16
 New state     11 was old state     12
 New state     12 was old state     14
 Excitation Energies [eV] at current iteration:
 Root      1 :    -3.611434962281086
 Root      2 :    -3.611434962281046
 Root      3 :     0.000682595669080
 Root      4 :     0.000682595669105
 Root      5 :     2.930102530492388
 Root      6 :     2.930102530492412
 Root      7 :    12.665038365337290
 Root      8 :    14.805069215298080
 Root      9 :    14.805069215298110
 Root     10 :    15.304947084163990
 Root     11 :    17.699560542504070
 Root     12 :    17.699560542504080
 Root     13 :    19.094131681289870
 Root     14 :    19.094131681289920
 Root     15 :    20.448709100696900
 Root     16 :    22.499255799520700
 Root     17 :    26.442340578302320
 Root     18 :    26.547426190191600
 Root     19 :    26.547426190191690
 Root     20 :    27.765956560092960
 Root     21 :    29.595589611600480
 Root     22 :    29.952505849893710
 Root     23 :    29.952505849893880
 Root     24 :    36.520817993393840
 Root     25 :    43.988570424656920
 Root     26 :    45.150235375258770
 Root     27 :    45.150235375258800
 Root     28 :    47.636049574104490
 Root     29 :    47.636049574104630
 Root     30 :    49.063914039826670
 Root     31 :    49.063914039826750
 Root     32 :    54.690542791625170
 Root     33 :    54.690542791625290
 Root     34 :    55.568255706296780
 Root     35 :    55.746068866957250
 Root     36 :    55.746068866957350
 Root     37 :    55.763067971782160
 Root     38 :    55.763067971782210
 Root     39 :    56.681706091707840
 Root     40 :    61.384975889519190
 Root     41 :    61.384975889519350
 Root     42 :    62.016439084874660
 Root     43 :    62.016439084874720
 Root     44 :    62.222643317889580
 Root     45 :   105.370957779417300
 Root     46 :   108.317413283586300
 Root     47 :   113.690137761285100
 Root     48 :   120.514654472402000
 Iteration     2 Dimension    72 NMult    48 NNew     24
 CISAX will form    24 AO SS matrices at one time.
 NMat=    24 NSing=    12 JSym2X= 2.
 Root      1 not converged, maximum delta is    0.128534985477468
 Root      2 not converged, maximum delta is    0.128534985477468
 Root      3 not converged, maximum delta is    0.057848509097736
 Root      4 not converged, maximum delta is    0.057848509097736
 New state      5 was old state      6
 Root      5 not converged, maximum delta is    0.405030355196999
 New state      6 was old state      5
 Root      6 not converged, maximum delta is    0.405030355197000
 Root      7 not converged, maximum delta is    0.002283230453778
 Root      8 not converged, maximum delta is    0.458114918954711
 Root      9 not converged, maximum delta is    0.458114918954711
 Root     10 has converged.
 Root     11 not converged, maximum delta is    0.165097414524894
 Root     12 not converged, maximum delta is    0.165097414524894
 Excitation Energies [eV] at current iteration:
 Root      1 :    -3.614553622158683   Change is   -0.003118659877597
 Root      2 :    -3.614553622158547   Change is   -0.003118659877501
 Root      3 :    -0.000000003572198   Change is   -0.000682599241279
 Root      4 :    -0.000000003572150   Change is   -0.000682599241255
 Root      5 :     2.929084292457229   Change is   -0.001018238035183
 Root      6 :     2.929084292457290   Change is   -0.001018238035098
 Root      7 :    12.658878908262340   Change is   -0.006159457074944
 Root      8 :    14.774359924219080   Change is   -0.030709291079006
 Root      9 :    14.774359924219180   Change is   -0.030709291078933
 Root     10 :    15.304626975935320   Change is   -0.000320108228670
 Root     11 :    17.697134475506390   Change is   -0.002426066997677
 Root     12 :    17.697134475506410   Change is   -0.002426066997671
 Root     13 :    19.093237628391330   Change is   -0.000894052898590
 Root     14 :    19.093237628391360   Change is   -0.000894052898511
 Root     15 :    20.442128534363120   Change is   -0.006580566333782
 Root     16 :    22.486562560515700   Change is   -0.012693239005007
 Root     17 :    26.435567563723320   Change is   -0.006773014578994
 Root     18 :    26.546500814430590   Change is   -0.000925375761010
 Root     19 :    26.546500814430690   Change is   -0.000925375760998
 Root     20 :    27.765942092545950   Change is   -0.000014467547013
 Root     21 :    29.587540112591490   Change is   -0.008049499008982
 Root     22 :    29.934739373528760   Change is   -0.017766476365112
 Root     23 :    29.934739373528780   Change is   -0.017766476364930
 Root     24 :    36.512221715180910   Change is   -0.008596278212925
 Root     25 :    43.987685583675510   Change is   -0.000884840981412
 Root     26 :    45.148263994193640   Change is   -0.001971381065160
 Root     27 :    45.148263994193700   Change is   -0.001971381065075
 Root     28 :    47.636049574104420   Change is   -0.000000000000073
 Root     29 :    47.636049574104670   Change is    0.000000000000048
 Root     30 :    49.063914039826710   Change is    0.000000000000048
 Root     31 :    49.063914039826860   Change is    0.000000000000109
 Root     32 :    54.690509207077230   Change is   -0.000033584547944
 Root     33 :    54.690509207077350   Change is   -0.000033584547944
 Root     34 :    55.568204271722440   Change is   -0.000051434574344
 Root     35 :    55.725204646078230   Change is   -0.037863325703937
 Root     36 :    55.725204646078300   Change is   -0.037863325703912
 Root     37 :    55.746067266470820   Change is   -0.000001600486431
 Root     38 :    55.746067266470860   Change is   -0.000001600486491
 Root     39 :    56.658500141501580   Change is   -0.023205950206263
 Root     40 :    61.383892548963040   Change is   -0.001083340556154
 Root     41 :    61.383892548963180   Change is   -0.001083340556166
 Root     42 :    62.015311249828890   Change is   -0.001127835045829
 Root     43 :    62.015311249828960   Change is   -0.001127835045696
 Root     44 :    62.221520983229330   Change is   -0.001122334660254
 Root     45 :   105.370677614649500   Change is   -0.000280164767774
 Root     46 :   108.307139156915700   Change is   -0.010274126670562
 Root     47 :   113.658608815114400   Change is   -0.031528946170707
 Root     48 :   120.492054133263500   Change is   -0.022600339138550
 Convergence achieved on expansion vectors.
 ***********************************************************************
 Stability analysis using <AA,BB:AA,BB> singles matrix:
 ***********************************************************************
 1PDM for each excited state written to RWF  633
 Ground to excited state transition densities written to RWF  633

 Eigenvectors of the stability matrix:
 
 Excited state symmetry could not be determined.
 Eigenvector   1:      Triplet-?Sym  Eigenvalue=-0.1328324  <S**2>=2.000
       3 ->  4         0.67940
       3 ->  5         0.12853
       3 ->  9         0.13334
 
 Excited state symmetry could not be determined.
 Eigenvector   2:      Triplet-?Sym  Eigenvalue=-0.1328324  <S**2>=2.000
       3 ->  4        -0.12853
       3 ->  5         0.67940
       3 ->  8         0.13334
 
 Excited state symmetry could not be determined.
 Eigenvector   3:      Singlet-?Sym  Eigenvalue=-0.0000000  <S**2>=0.000
       3 ->  4         0.69697
       3 ->  9         0.10391
 
 Excited state symmetry could not be determined.
 Eigenvector   4:      Singlet-?Sym  Eigenvalue=-0.0000000  <S**2>=0.000
       3 ->  5         0.69697
       3 ->  8         0.10391
 
 Excited state symmetry could not be determined.
 Eigenvector   5:      Triplet-?Sym  Eigenvalue= 0.1076419  <S**2>=2.000
       2 ->  4         0.45182
       2 ->  5         0.51450
       2 ->  8         0.12428
       2 ->  9         0.10913
 
 Excited state symmetry could not be determined.
 Eigenvector   6:      Triplet-?Sym  Eigenvalue= 0.1076419  <S**2>=2.000
       2 ->  4         0.51450
       2 ->  5        -0.45182
       2 ->  8        -0.10913
       2 ->  9         0.12428
 The wavefunction has an RHF -> UHF instability.
 Leave Link  914 at Tue Dec 14 12:31:04 2021, MaxMem=  1610612736 cpu:               2.6 elap:               0.4
 (Enter /usr/local/g16reva03/legacy_cpu/g16/l601.exe)
 Copying SCF densities to generalized density rwf, IOpCl= 0 IROHF=0.
 SCF density gives NOpUse=  8 NOpAll= 48.
 Marking SCF density as not fully symmetric.

 **********************************************************************

            Population analysis using the SCF density.

 **********************************************************************

 Orbital symmetries:
       Occupied  (A1G) (A1G) (?A)
       Virtual   (?A) (?A) (?A) (?B) (?A) (?A) (T2G) (?B) (T2G)
                 (T2G) (?B) (?B)
 Unable to determine electronic state:  an orbital has unidentified symmetry.
 Alpha  occ. eigenvalues --  -11.34608  -0.70991  -0.34225
 Alpha virt. eigenvalues --    0.06677   0.06677   0.75899   0.76594   0.78954
 Alpha virt. eigenvalues --    0.78954   1.96266   1.96266   1.98479   1.98479
 Alpha virt. eigenvalues --    1.99213   4.16937
          Condensed to atoms (all electrons):
               1
     1  C    6.000000
 Mulliken charges:
               1
     1  C    0.000000
 Sum of Mulliken charges =   0.00000
 Mulliken charges with hydrogens summed into heavy atoms:
               1
     1  C    0.000000
 Electronic spatial extent (au):  <R**2>=             13.4877
 Charge=              0.0000 electrons
 Dipole moment (field-independent basis, Debye):
    X=              0.0000    Y=              0.0000    Z=              0.0000  Tot=              0.0000
 Quadrupole moment (field-independent basis, Debye-Ang):
   XX=             -4.7247   YY=             -4.7247   ZZ=             -8.6919
   XY=              0.0000   XZ=             -0.0000   YZ=              0.0000
 Traceless Quadrupole moment (field-independent basis, Debye-Ang):
   XX=              1.3224   YY=              1.3224   ZZ=             -2.6448
   XY=              0.0000   XZ=             -0.0000   YZ=              0.0000
 Octapole moment (field-independent basis, Debye-Ang**2):
  XXX=              0.0000  YYY=              0.0000  ZZZ=              0.0000  XYY=              0.0000
  XXY=              0.0000  XXZ=              0.0000  XZZ=              0.0000  YZZ=              0.0000
  YYZ=              0.0000  XYZ=              0.0000
 Hexadecapole moment (field-independent basis, Debye-Ang**3):
 XXXX=             -4.2140 YYYY=             -4.2140 ZZZZ=            -11.1303 XXXY=             -0.0000
 XXXZ=             -0.0000 YYYX=             -0.0000 YYYZ=              0.0000 ZZZX=             -0.0000
 ZZZY=              0.0000 XXYY=             -1.4047 XXZZ=             -2.5574 YYZZ=             -2.5574
 XXYZ=              0.0000 YYXZ=             -0.0000 ZZXY=             -0.0000
 N-N= 0.000000000000D+00 E-N=-8.798544066283D+01  KE= 3.760479231437D+01
 Symmetry AG   KE= 3.522428976738D+01
 Symmetry B1G  KE= 3.439601581757D-52
 Symmetry B2G  KE= 3.944998099204D-37
 Symmetry B3G  KE= 6.797774373420D-37
 Symmetry AU   KE= 0.000000000000D+00
 Symmetry B1U  KE= 2.380502546999D+00
 Symmetry B2U  KE= 4.442501063984D-33
 Symmetry B3U  KE= 4.462727478141D-33
 No NMR shielding tensors so no spin-rotation constants.
 Leave Link  601 at Tue Dec 14 12:31:05 2021, MaxMem=  1610612736 cpu:               2.9 elap:               0.4
 (Enter /usr/local/g16reva03/legacy_cpu/g16/l9999.exe)
 1\1\GINC-NODE137\Stability\RHF\6-31G(d)\C1\ROOT\14-Dec-2021\0\\#P rhf/
 6-31g(d) geom=connectivity stable\\Stability test for a singlet carbon
  atom\\0,1\C\\Version=EM64L-G16RevA.03\HF=-37.5885579\RMSD=1.165e-09\D
 ipole=0.,0.,0.\Quadrupole=-1.9663539,0.9831769,0.9831769,0.,0.,0.\PG=O
 H [O(C1)]\\@


  THE LARGE PRINT GIVETH,
  AND THE SMALL PRINT TAKETH AWAY.

                     -- TOM WAITS
 Job cpu time:       0 days  0 hours  0 minutes 27.4 seconds.
 Elapsed time:       0 days  0 hours  0 minutes  4.3 seconds.
 File lengths (MBytes):  RWF=     72 Int=      0 D2E=      0 Chk=      8 Scr=      8
 Normal termination of Gaussian 16 at Tue Dec 14 12:31:05 2021.
