************************************************************
This is node137 of the Cardinal research cluster.
Date: Tue Dec 14 13:23:49 EST 2021
************************************************************
 Set GAUSS_MDEF to "12GB".
 Set GAUSS_PDEF to "8".
 Entering Gaussian System, Link 0=g16
 Initial command:
 /usr/local/g16reva03/legacy_cpu/g16/l1.exe "/scratch/global/amkiny01/Gau-20462.inp" -scrdir="/scratch/global/amkiny01/"
 Default is to use a total of   8 processors:
                                8 via shared-memory
                                1 via Linda
 Entering Link 1 = /usr/local/g16reva03/legacy_cpu/g16/l1.exe PID=     20463.
  
 Copyright (c) 1988,1990,1992,1993,1995,1998,2003,2009,2016,
            Gaussian, Inc.  All Rights Reserved.
  
 This is part of the Gaussian(R) 16 program.  It is based on
 the Gaussian(R) 09 system (copyright 2009, Gaussian, Inc.),
 the Gaussian(R) 03 system (copyright 2003, Gaussian, Inc.),
 the Gaussian(R) 98 system (copyright 1998, Gaussian, Inc.),
 the Gaussian(R) 94 system (copyright 1995, Gaussian, Inc.),
 the Gaussian 92(TM) system (copyright 1992, Gaussian, Inc.),
 the Gaussian 90(TM) system (copyright 1990, Gaussian, Inc.),
 the Gaussian 88(TM) system (copyright 1988, Gaussian, Inc.),
 the Gaussian 86(TM) system (copyright 1986, Carnegie Mellon
 University), and the Gaussian 82(TM) system (copyright 1983,
 Carnegie Mellon University). Gaussian is a federally registered
 trademark of Gaussian, Inc.
  
 This software contains proprietary and confidential information,
 including trade secrets, belonging to Gaussian, Inc.
  
 This software is provided under written license and may be
 used, copied, transmitted, or stored only in accord with that
 written license.
  
 The following legend is applicable only to US Government
 contracts under FAR:
  
                    RESTRICTED RIGHTS LEGEND
  
 Use, reproduction and disclosure by the US Government is
 subject to restrictions as set forth in subparagraphs (a)
 and (c) of the Commercial Computer Software - Restricted
 Rights clause in FAR 52.227-19.
  
 Gaussian, Inc.
 340 Quinnipiac St., Bldg. 40, Wallingford CT 06492
  
  
 ---------------------------------------------------------------
 Warning -- This program may not be used in any manner that
 competes with the business of Gaussian, Inc. or will provide
 assistance to any competitor of Gaussian, Inc.  The licensee
 of this program is prohibited from giving any competitor of
 Gaussian, Inc. access to this program.  By using this program,
 the user acknowledges that Gaussian, Inc. is engaged in the
 business of creating and licensing software in the field of
 computational chemistry and represents and warrants to the
 licensee that it is not a competitor of Gaussian, Inc. and that
 it will not use this program in any manner prohibited above.
 ---------------------------------------------------------------
  

 Cite this work as:
 Gaussian 16, Revision A.03,
 M. J. Frisch, G. W. Trucks, H. B. Schlegel, G. E. Scuseria, 
 M. A. Robb, J. R. Cheeseman, G. Scalmani, V. Barone, 
 G. A. Petersson, H. Nakatsuji, X. Li, M. Caricato, A. V. Marenich, 
 J. Bloino, B. G. Janesko, R. Gomperts, B. Mennucci, H. P. Hratchian, 
 J. V. Ortiz, A. F. Izmaylov, J. L. Sonnenberg, D. Williams-Young, 
 F. Ding, F. Lipparini, F. Egidi, J. Goings, B. Peng, A. Petrone, 
 T. Henderson, D. Ranasinghe, V. G. Zakrzewski, J. Gao, N. Rega, 
 G. Zheng, W. Liang, M. Hada, M. Ehara, K. Toyota, R. Fukuda, 
 J. Hasegawa, M. Ishida, T. Nakajima, Y. Honda, O. Kitao, H. Nakai, 
 T. Vreven, K. Throssell, J. A. Montgomery, Jr., J. E. Peralta, 
 F. Ogliaro, M. J. Bearpark, J. J. Heyd, E. N. Brothers, K. N. Kudin, 
 V. N. Staroverov, T. A. Keith, R. Kobayashi, J. Normand, 
 K. Raghavachari, A. P. Rendell, J. C. Burant, S. S. Iyengar, 
 J. Tomasi, M. Cossi, J. M. Millam, M. Klene, C. Adamo, R. Cammi, 
 J. W. Ochterski, R. L. Martin, K. Morokuma, O. Farkas, 
 J. B. Foresman, and D. J. Fox, Gaussian, Inc., Wallingford CT, 2016.
 
 ******************************************
 Gaussian 16:  EM64L-G16RevA.03 25-Dec-2016
                14-Dec-2021 
 ******************************************
 %chk=ethylene_opt_singlet.chk
 ------------------------
 #P rhf/6-31g(d) test opt
 ------------------------
 1/18=20,19=15,38=1/1,3;
 2/9=110,12=2,17=6,18=5,40=1/2;
 3/5=1,6=6,7=1,11=1,25=1,30=1,71=1,116=1/1,2,3;
 4//1;
 5/5=2,38=5/2;
 6/7=2,8=2,9=2,10=2,28=1/1;
 7//1,2,3,16;
 1/18=20,19=15/3(2);
 2/9=110/2;
 99//99;
 2/9=110/2;
 3/5=1,6=6,7=1,11=1,25=1,30=1,71=1,116=1/1,2,3;
 4/5=5,16=3,69=1/1;
 5/5=2,38=5/2;
 7//1,2,3,16;
 1/18=20,19=15/3(-5);
 2/9=110/2;
 6/7=2,8=2,9=2,10=2,19=2,28=1/1;
 99/9=1/99;
 Leave Link    1 at Tue Dec 14 13:23:49 2021, MaxMem=           0 cpu:               2.4 elap:               0.3
 (Enter /usr/local/g16reva03/legacy_cpu/g16/l101.exe)
 ----------------------
 Etheylene Optimization
 ----------------------
 Symbolic Z-matrix:
 Charge =  0 Multiplicity = 1
 C
 H                    1    B1
 H                    1    B2       2    A1
 C                    1    B3       3    A2       2    D1       0
 H                    4    B4       1    A3       3    D2       0
 H                    4    B5       1    A4       3    D3       0
       Variables:
  B1                    1.07                     
  B2                    1.07                     
  B3                    1.3552                   
  B4                    1.07                     
  B5                    1.07                     
  A1                  119.88653                  
  A2                  119.88653                  
  A3                  120.22695                  
  A4                  119.88653                  
  D1                  180.                       
  D2                    0.                       
  D3                 -180.                       
 
 ITRead=  0  0  0  0  0  0
 MicOpt= -1 -1 -1 -1 -1 -1
 NAtoms=      6 NQM=        6 NQMF=       0 NMMI=      0 NMMIF=      0
                NMic=       0 NMicF=      0.
                    Isotopes and Nuclear Properties:
 (Nuclear quadrupole moments (NQMom) in fm**2, nuclear magnetic moments (NMagM)
  in nuclear magnetons)

  Atom         1           2           3           4           5           6
 IAtWgt=          12           1           1          12           1           1
 AtmWgt=  12.0000000   1.0078250   1.0078250  12.0000000   1.0078250   1.0078250
 NucSpn=           0           1           1           0           1           1
 AtZEff=  -0.0000000  -0.0000000  -0.0000000  -0.0000000  -0.0000000  -0.0000000
 NQMom=    0.0000000   0.0000000   0.0000000   0.0000000   0.0000000   0.0000000
 NMagM=    0.0000000   2.7928460   2.7928460   0.0000000   2.7928460   2.7928460
 AtZNuc=   6.0000000   1.0000000   1.0000000   6.0000000   1.0000000   1.0000000
 Leave Link  101 at Tue Dec 14 13:23:50 2021, MaxMem=  1610612736 cpu:               4.4 elap:               0.6
 (Enter /usr/local/g16reva03/legacy_cpu/g16/l103.exe)

 GradGradGradGradGradGradGradGradGradGradGradGradGradGradGradGradGradGrad
 Berny optimization.
 Initialization pass.
                           ----------------------------
                           !    Initial Parameters    !
                           ! (Angstroms and Degrees)  !
 --------------------------                            --------------------------
 ! Name  Definition              Value          Derivative Info.                !
 --------------------------------------------------------------------------------
 ! R1    R(1,2)                  1.07           estimate D2E/DX2                !
 ! R2    R(1,3)                  1.07           estimate D2E/DX2                !
 ! R3    R(1,4)                  1.3552         estimate D2E/DX2                !
 ! R4    R(4,5)                  1.07           estimate D2E/DX2                !
 ! R5    R(4,6)                  1.07           estimate D2E/DX2                !
 ! A1    A(2,1,3)              119.8865         estimate D2E/DX2                !
 ! A2    A(2,1,4)              120.2269         estimate D2E/DX2                !
 ! A3    A(3,1,4)              119.8865         estimate D2E/DX2                !
 ! A4    A(1,4,5)              120.2269         estimate D2E/DX2                !
 ! A5    A(1,4,6)              119.8865         estimate D2E/DX2                !
 ! A6    A(5,4,6)              119.8865         estimate D2E/DX2                !
 ! D1    D(2,1,4,5)            180.0            estimate D2E/DX2                !
 ! D2    D(2,1,4,6)              0.0            estimate D2E/DX2                !
 ! D3    D(3,1,4,5)              0.0            estimate D2E/DX2                !
 ! D4    D(3,1,4,6)            180.0            estimate D2E/DX2                !
 --------------------------------------------------------------------------------
 Trust Radius=3.00D-01 FncErr=1.00D-07 GrdErr=1.00D-07 EigMax=2.50D+02 EigMin=1.00D-04
 Number of steps in this run=     25 maximum allowed number of steps=    100.
 GradGradGradGradGradGradGradGradGradGradGradGradGradGradGradGradGradGrad

 Leave Link  103 at Tue Dec 14 13:23:50 2021, MaxMem=  1610612736 cpu:               0.3 elap:               0.1
 (Enter /usr/local/g16reva03/legacy_cpu/g16/l202.exe)
                          Input orientation:                          
 ---------------------------------------------------------------------
 Center     Atomic      Atomic             Coordinates (Angstroms)
 Number     Number       Type             X           Y           Z
 ---------------------------------------------------------------------
      1          6           0        0.000000    0.000000    0.000000
      2          1           0        0.000000    0.000000    1.070000
      3          1           0        0.927705    0.000000   -0.533164
      4          6           0       -1.170944    0.000000   -0.682243
      5          1           0       -1.170944    0.000000   -1.752243
      6          1           0       -2.098649    0.000000   -0.149080
 ---------------------------------------------------------------------
                    Distance matrix (angstroms):
                    1          2          3          4          5
     1  C    0.000000
     2  H    1.070000   0.000000
     3  H    1.070000   1.852234   0.000000
     4  C    1.355200   2.107479   2.103938   0.000000
     5  H    2.107479   3.055514   2.427032   1.070000   0.000000
     6  H    2.103938   2.427032   3.050630   1.070000   1.852234
                    6
     6  H    0.000000
 Stoichiometry    C2H4
 Framework group  C2H[SGH(C2H4)]
 Deg. of freedom     5
 Full point group                 C2H     NOp   4
 Largest Abelian subgroup         C2H     NOp   4
 Largest concise Abelian subgroup C2      NOp   2
                         Standard orientation:                         
 ---------------------------------------------------------------------
 Center     Atomic      Atomic             Coordinates (Angstroms)
 Number     Number       Type             X           Y           Z
 ---------------------------------------------------------------------
      1          6           0        0.000000    0.677600    0.000000
      2          1           0        0.924521    1.216266    0.000000
      3          1           0       -0.927705    1.210764    0.000000
      4          6           0       -0.000000   -0.677600    0.000000
      5          1           0       -0.924521   -1.216266    0.000000
      6          1           0        0.927705   -1.210764    0.000000
 ---------------------------------------------------------------------
 Rotational constants (GHZ):         146.1648706          29.8053188          24.7569806
 Leave Link  202 at Tue Dec 14 13:23:50 2021, MaxMem=  1610612736 cpu:               0.1 elap:               0.0
 (Enter /usr/local/g16reva03/legacy_cpu/g16/l301.exe)
 Standard basis: 6-31G(d) (6D, 7F)
 Ernie: Thresh=  0.10000D-02 Tol=  0.10000D-05 Strict=F.
 There are    15 symmetry adapted cartesian basis functions of AG  symmetry.
 There are     4 symmetry adapted cartesian basis functions of BG  symmetry.
 There are     4 symmetry adapted cartesian basis functions of AU  symmetry.
 There are    15 symmetry adapted cartesian basis functions of BU  symmetry.
 There are    15 symmetry adapted basis functions of AG  symmetry.
 There are     4 symmetry adapted basis functions of BG  symmetry.
 There are     4 symmetry adapted basis functions of AU  symmetry.
 There are    15 symmetry adapted basis functions of BU  symmetry.
    38 basis functions,    72 primitive gaussians,    38 cartesian basis functions
     8 alpha electrons        8 beta electrons
       nuclear repulsion energy        33.3121055818 Hartrees.
 IExCor=    0 DFT=F Ex=HF Corr=None ExCW=0 ScaHFX=  1.000000
 ScaDFX=  1.000000  1.000000  1.000000  1.000000 ScalE2=  1.000000  1.000000
 IRadAn=      5 IRanWt=     -1 IRanGd=            0 ICorTp=0 IEmpDi=  4
 NAtoms=    6 NActive=    6 NUniq=    3 SFac= 4.00D+00 NAtFMM=   60 NAOKFM=F Big=F
 Integral buffers will be    131072 words long.
 Raffenetti 1 integral format.
 Two-electron integral symmetry is turned on.
 Leave Link  301 at Tue Dec 14 13:23:50 2021, MaxMem=  1610612736 cpu:               0.8 elap:               0.1
 (Enter /usr/local/g16reva03/legacy_cpu/g16/l302.exe)
 NPDir=0 NMtPBC=     1 NCelOv=     1 NCel=       1 NClECP=     1 NCelD=      1
         NCelK=      1 NCelE2=     1 NClLst=     1 CellRange=     0.0.
 One-electron integrals computed using PRISM.
 One-electron integral symmetry used in STVInt
 NBasis=    38 RedAO= T EigKep=  8.05D-03  NBF=    15     4     4    15
 NBsUse=    38 1.00D-06 EigRej= -1.00D+00 NBFU=    15     4     4    15
 Leave Link  302 at Tue Dec 14 13:23:51 2021, MaxMem=  1610612736 cpu:               1.3 elap:               0.2
 (Enter /usr/local/g16reva03/legacy_cpu/g16/l303.exe)
 DipDrv:  MaxL=1.
 Leave Link  303 at Tue Dec 14 13:23:51 2021, MaxMem=  1610612736 cpu:               0.3 elap:               0.1
 (Enter /usr/local/g16reva03/legacy_cpu/g16/l401.exe)
 ExpMin= 1.61D-01 ExpMax= 3.05D+03 ExpMxC= 4.57D+02 IAcc=3 IRadAn=         5 AccDes= 0.00D+00
 Harris functional with IExCor=  205 and IRadAn=       5 diagonalized for initial guess.
 HarFok:  IExCor=  205 AccDes= 0.00D+00 IRadAn=         5 IDoV= 1 UseB2=F ITyADJ=14
 ICtDFT=  3500011 ScaDFX=  1.000000  1.000000  1.000000  1.000000
 FoFCou: FMM=F IPFlag=           0 FMFlag=      100000 FMFlg1=           0
         NFxFlg=           0 DoJE=T BraDBF=F KetDBF=T FulRan=T
         wScrn=  0.000000 ICntrl=       500 IOpCl=  0 I1Cent=   200000004 NGrid=           0
         NMat0=    1 NMatS0=      1 NMatT0=    0 NMatD0=    1 NMtDS0=    0 NMtDT0=    0
 Petite list used in FoFCou.
 Harris En= -78.2187113818596    
 JPrj=0 DoOrth=F DoCkMO=F.
 Initial guess orbital symmetries:
       Occupied  (AG) (BU) (AG) (BU) (BU) (AG) (AG) (AU)
       Virtual   (BG) (AG) (BU) (BU) (AG) (BU) (AG) (AU) (BU) (BG)
                 (BU) (AG) (AG) (BU) (BU) (AG) (BU) (AG) (AU) (BG)
                 (AU) (AG) (BU) (AG) (BU) (BG) (AG) (BU) (AG) (BU)
 The electronic state of the initial guess is 1-AG.
 Leave Link  401 at Tue Dec 14 13:23:51 2021, MaxMem=  1610612736 cpu:               2.1 elap:               0.3
 (Enter /usr/local/g16reva03/legacy_cpu/g16/l502.exe)
 Keep R1 ints in memory in symmetry-blocked form, NReq=1936329.
 FoFCou: FMM=F IPFlag=           0 FMFlag=           0 FMFlg1=           0
         NFxFlg=           0 DoJE=F BraDBF=F KetDBF=F FulRan=T
         wScrn=  0.000000 ICntrl=       600 IOpCl=  0 I1Cent=           0 NGrid=           0
         NMat0=    1 NMatS0=    741 NMatT0=    0 NMatD0=    1 NMtDS0=    0 NMtDT0=    0
 Petite list used in FoFCou.
 Closed shell SCF:
 Using DIIS extrapolation, IDIIS=  1040.
 NGot=  1610612736 LenX=  1610528813 LenY=  1610526928
 Requested convergence on RMS density matrix=1.00D-08 within 128 cycles.
 Requested convergence on MAX density matrix=1.00D-06.
 Requested convergence on             energy=1.00D-06.
 No special actions if energy rises.

 Cycle   1  Pass 1  IDiag  1:
 E= -77.8953632858967    
 DIIS: error= 7.51D-02 at cycle   1 NSaved=   1.
 NSaved= 1 IEnMin= 1 EnMin= -77.8953632858967     IErMin= 1 ErrMin= 7.51D-02
 ErrMax= 7.51D-02  0.00D+00 EMaxC= 1.00D-01 BMatC= 1.63D-01 BMatP= 1.63D-01
 IDIUse=3 WtCom= 2.49D-01 WtEn= 7.51D-01
 Coeff-Com:  0.100D+01
 Coeff-En:   0.100D+01
 Coeff:      0.100D+01
 Gap=     0.539 Goal=   None    Shift=    0.000
 GapD=    0.539 DampG=2.000 DampE=0.500 DampFc=1.0000 IDamp=-1.
 RMSDP=1.02D-02 MaxDP=1.06D-01              OVMax= 1.37D-01

 Cycle   2  Pass 1  IDiag  1:
 E= -78.0142315178165     Delta-E=       -0.118868231920 Rises=F Damp=F
 DIIS: error= 1.96D-02 at cycle   2 NSaved=   2.
 NSaved= 2 IEnMin= 2 EnMin= -78.0142315178165     IErMin= 2 ErrMin= 1.96D-02
 ErrMax= 1.96D-02  0.00D+00 EMaxC= 1.00D-01 BMatC= 1.68D-02 BMatP= 1.63D-01
 IDIUse=3 WtCom= 8.04D-01 WtEn= 1.96D-01
 Coeff-Com:  0.184D+00 0.816D+00
 Coeff-En:   0.000D+00 0.100D+01
 Coeff:      0.148D+00 0.852D+00
 Gap=     0.549 Goal=   None    Shift=    0.000
 RMSDP=3.08D-03 MaxDP=2.62D-02 DE=-1.19D-01 OVMax= 3.72D-02

 Cycle   3  Pass 1  IDiag  1:
 E= -78.0289126423857     Delta-E=       -0.014681124569 Rises=F Damp=F
 DIIS: error= 4.45D-03 at cycle   3 NSaved=   3.
 NSaved= 3 IEnMin= 3 EnMin= -78.0289126423857     IErMin= 3 ErrMin= 4.45D-03
 ErrMax= 4.45D-03  0.00D+00 EMaxC= 1.00D-01 BMatC= 4.17D-04 BMatP= 1.68D-02
 IDIUse=3 WtCom= 9.56D-01 WtEn= 4.45D-02
 Coeff-Com: -0.230D-01 0.886D-01 0.934D+00
 Coeff-En:   0.000D+00 0.000D+00 0.100D+01
 Coeff:     -0.220D-01 0.847D-01 0.937D+00
 Gap=     0.540 Goal=   None    Shift=    0.000
 RMSDP=4.48D-04 MaxDP=4.93D-03 DE=-1.47D-02 OVMax= 7.59D-03

 Cycle   4  Pass 1  IDiag  1:
 E= -78.0293853524315     Delta-E=       -0.000472710046 Rises=F Damp=F
 DIIS: error= 3.93D-04 at cycle   4 NSaved=   4.
 NSaved= 4 IEnMin= 4 EnMin= -78.0293853524315     IErMin= 4 ErrMin= 3.93D-04
 ErrMax= 3.93D-04  0.00D+00 EMaxC= 1.00D-01 BMatC= 3.32D-06 BMatP= 4.17D-04
 IDIUse=3 WtCom= 9.96D-01 WtEn= 3.93D-03
 Coeff-Com:  0.431D-02-0.272D-01-0.196D+00 0.122D+01
 Coeff-En:   0.000D+00 0.000D+00 0.000D+00 0.100D+01
 Coeff:      0.429D-02-0.271D-01-0.195D+00 0.122D+01
 Gap=     0.540 Goal=   None    Shift=    0.000
 RMSDP=7.86D-05 MaxDP=4.71D-04 DE=-4.73D-04 OVMax= 9.67D-04

 Cycle   5  Pass 1  IDiag  1:
 E= -78.0293912074759     Delta-E=       -0.000005855044 Rises=F Damp=F
 DIIS: error= 6.01D-05 at cycle   5 NSaved=   5.
 NSaved= 5 IEnMin= 5 EnMin= -78.0293912074759     IErMin= 5 ErrMin= 6.01D-05
 ErrMax= 6.01D-05  0.00D+00 EMaxC= 1.00D-01 BMatC= 6.45D-08 BMatP= 3.32D-06
 IDIUse=1 WtCom= 1.00D+00 WtEn= 0.00D+00
 Coeff-Com:  0.124D-03-0.935D-04-0.442D-02-0.130D+00 0.113D+01
 Coeff:      0.124D-03-0.935D-04-0.442D-02-0.130D+00 0.113D+01
 Gap=     0.540 Goal=   None    Shift=    0.000
 RMSDP=1.55D-05 MaxDP=9.19D-05 DE=-5.86D-06 OVMax= 1.79D-04

 Cycle   6  Pass 1  IDiag  1:
 E= -78.0293913518098     Delta-E=       -0.000000144334 Rises=F Damp=F
 DIIS: error= 7.13D-06 at cycle   6 NSaved=   6.
 NSaved= 6 IEnMin= 6 EnMin= -78.0293913518098     IErMin= 6 ErrMin= 7.13D-06
 ErrMax= 7.13D-06  0.00D+00 EMaxC= 1.00D-01 BMatC= 1.06D-09 BMatP= 6.45D-08
 IDIUse=1 WtCom= 1.00D+00 WtEn= 0.00D+00
 Coeff-Com: -0.915D-04 0.488D-03 0.426D-02 0.908D-02-0.264D+00 0.125D+01
 Coeff:     -0.915D-04 0.488D-03 0.426D-02 0.908D-02-0.264D+00 0.125D+01
 Gap=     0.540 Goal=   None    Shift=    0.000
 RMSDP=2.47D-06 MaxDP=1.86D-05 DE=-1.44D-07 OVMax= 2.25D-05

 Cycle   7  Pass 1  IDiag  1:
 E= -78.0293913540472     Delta-E=       -0.000000002237 Rises=F Damp=F
 DIIS: error= 6.72D-07 at cycle   7 NSaved=   7.
 NSaved= 7 IEnMin= 7 EnMin= -78.0293913540472     IErMin= 7 ErrMin= 6.72D-07
 ErrMax= 6.72D-07  0.00D+00 EMaxC= 1.00D-01 BMatC= 8.25D-12 BMatP= 1.06D-09
 IDIUse=1 WtCom= 1.00D+00 WtEn= 0.00D+00
 Coeff-Com:  0.209D-04-0.117D-03-0.996D-03-0.705D-03 0.516D-01-0.289D+00
 Coeff-Com:  0.124D+01
 Coeff:      0.209D-04-0.117D-03-0.996D-03-0.705D-03 0.516D-01-0.289D+00
 Coeff:      0.124D+01
 Gap=     0.540 Goal=   None    Shift=    0.000
 RMSDP=1.55D-07 MaxDP=1.30D-06 DE=-2.24D-09 OVMax= 2.09D-06

 Cycle   8  Pass 1  IDiag  1:
 E= -78.0293913540652     Delta-E=       -0.000000000018 Rises=F Damp=F
 DIIS: error= 9.44D-08 at cycle   8 NSaved=   8.
 NSaved= 8 IEnMin= 8 EnMin= -78.0293913540652     IErMin= 8 ErrMin= 9.44D-08
 ErrMax= 9.44D-08  0.00D+00 EMaxC= 1.00D-01 BMatC= 1.61D-13 BMatP= 8.25D-12
 IDIUse=1 WtCom= 1.00D+00 WtEn= 0.00D+00
 Coeff-Com: -0.393D-05 0.218D-04 0.187D-03-0.246D-04-0.832D-02 0.508D-01
 Coeff-Com: -0.307D+00 0.126D+01
 Coeff:     -0.393D-05 0.218D-04 0.187D-03-0.246D-04-0.832D-02 0.508D-01
 Coeff:     -0.307D+00 0.126D+01
 Gap=     0.540 Goal=   None    Shift=    0.000
 RMSDP=2.37D-08 MaxDP=1.90D-07 DE=-1.80D-11 OVMax= 2.84D-07

 Cycle   9  Pass 1  IDiag  1:
 E= -78.0293913540658     Delta-E=       -0.000000000001 Rises=F Damp=F
 DIIS: error= 1.06D-08 at cycle   9 NSaved=   9.
 NSaved= 9 IEnMin= 9 EnMin= -78.0293913540658     IErMin= 9 ErrMin= 1.06D-08
 ErrMax= 1.06D-08  0.00D+00 EMaxC= 1.00D-01 BMatC= 2.12D-15 BMatP= 1.61D-13
 IDIUse=1 WtCom= 1.00D+00 WtEn= 0.00D+00
 Coeff-Com:  0.578D-06-0.312D-05-0.277D-04-0.306D-05 0.130D-02-0.798D-02
 Coeff-Com:  0.544D-01-0.298D+00 0.125D+01
 Coeff:      0.578D-06-0.312D-05-0.277D-04-0.306D-05 0.130D-02-0.798D-02
 Coeff:      0.544D-01-0.298D+00 0.125D+01
 Gap=     0.540 Goal=   None    Shift=    0.000
 RMSDP=2.23D-09 MaxDP=1.49D-08 DE=-6.25D-13 OVMax= 2.88D-08

 SCF Done:  E(RHF) =  -78.0293913541     A.U. after    9 cycles
            NFock=  9  Conv=0.22D-08     -V/T= 2.0016
 KE= 7.790372566172D+01 PE=-2.478554171873D+02 EE= 5.861019458976D+01
 Leave Link  502 at Tue Dec 14 13:23:52 2021, MaxMem=  1610612736 cpu:               3.6 elap:               0.5
 (Enter /usr/local/g16reva03/legacy_cpu/g16/l601.exe)
 Copying SCF densities to generalized density rwf, IOpCl= 0 IROHF=0.

 **********************************************************************

            Population analysis using the SCF density.

 **********************************************************************

 Orbital symmetries:
       Occupied  (AG) (BU) (AG) (BU) (BU) (AG) (AG) (AU)
       Virtual   (BG) (AG) (BU) (BU) (AG) (BU) (AG) (BU) (AU) (AG)
                 (BG) (BU) (BU) (AG) (AG) (BU) (BU) (AG) (AU) (BG)
                 (AU) (AG) (BU) (AG) (BU) (BG) (AG) (BU) (AG) (BU)
 The electronic state is 1-AG.
 Alpha  occ. eigenvalues --  -11.22783 -11.22634  -1.02387  -0.79171  -0.64484
 Alpha  occ. eigenvalues --   -0.57242  -0.51403  -0.36461
 Alpha virt. eigenvalues --    0.17538   0.26376   0.29850   0.31319   0.38937
 Alpha virt. eigenvalues --    0.48113   0.67057   0.77054   0.78117   0.84758
 Alpha virt. eigenvalues --    0.88890   0.94419   1.12906   1.16365   1.20716
 Alpha virt. eigenvalues --    1.21435   1.32122   1.50904   1.73560   1.82554
 Alpha virt. eigenvalues --    2.11865   2.22144   2.32728   2.39699   2.64933
 Alpha virt. eigenvalues --    2.69230   3.01338   3.04502   4.51705   4.67885
          Condensed to atoms (all electrons):
               1          2          3          4          5          6
     1  C    5.008410   0.397123   0.397115   0.636747  -0.039845  -0.040304
     2  H    0.397123   0.488731  -0.025711  -0.039845   0.002898  -0.003119
     3  H    0.397115  -0.025711   0.489736  -0.040304  -0.003119   0.002960
     4  C    0.636747  -0.039845  -0.040304   5.008410   0.397123   0.397115
     5  H   -0.039845   0.002898  -0.003119   0.397123   0.488731  -0.025711
     6  H   -0.040304  -0.003119   0.002960   0.397115  -0.025711   0.489736
 Mulliken charges:
               1
     1  C   -0.359246
     2  H    0.179923
     3  H    0.179322
     4  C   -0.359246
     5  H    0.179923
     6  H    0.179322
 Sum of Mulliken charges =   0.00000
 Mulliken charges with hydrogens summed into heavy atoms:
               1
     1  C    0.000000
     4  C    0.000000
 Electronic spatial extent (au):  <R**2>=             82.4649
 Charge=              0.0000 electrons
 Dipole moment (field-independent basis, Debye):
    X=              0.0000    Y=              0.0000    Z=              0.0000  Tot=              0.0000
 Quadrupole moment (field-independent basis, Debye-Ang):
   XX=            -12.0732   YY=            -12.1195   ZZ=            -15.4893
   XY=              0.0136   XZ=              0.0000   YZ=              0.0000
 Traceless Quadrupole moment (field-independent basis, Debye-Ang):
   XX=              1.1542   YY=              1.1079   ZZ=             -2.2620
   XY=              0.0136   XZ=              0.0000   YZ=              0.0000
 Octapole moment (field-independent basis, Debye-Ang**2):
  XXX=              0.0000  YYY=             -0.0000  ZZZ=              0.0000  XYY=              0.0000
  XXY=              0.0000  XXZ=              0.0000  XZZ=              0.0000  YZZ=             -0.0000
  YYZ=              0.0000  XYZ=              0.0000
 Hexadecapole moment (field-independent basis, Debye-Ang**3):
 XXXX=            -25.3510 YYYY=            -66.8814 ZZZZ=            -16.7209 XXXY=              0.0033
 XXXZ=              0.0000 YYYX=              0.0577 YYYZ=              0.0000 ZZZX=              0.0000
 ZZZY=              0.0000 XXYY=            -12.8769 XXZZ=             -7.6720 YYZZ=            -14.8083
 XXYZ=              0.0000 YYXZ=              0.0000 ZZXY=              0.0014
 N-N= 3.331210558180D+01 E-N=-2.478554171434D+02  KE= 7.790372566172D+01
 Symmetry AG   KE= 3.958261224481D+01
 Symmetry BG   KE= 2.037347977265D-32
 Symmetry AU   KE= 1.923356668025D+00
 Symmetry BU   KE= 3.639775674888D+01
 No NMR shielding tensors so no spin-rotation constants.
 Leave Link  601 at Tue Dec 14 13:23:52 2021, MaxMem=  1610612736 cpu:               1.4 elap:               0.2
 (Enter /usr/local/g16reva03/legacy_cpu/g16/l701.exe)
 ... and contract with generalized density number  0.
 Compute integral first derivatives.
 Leave Link  701 at Tue Dec 14 13:23:53 2021, MaxMem=  1610612736 cpu:               2.6 elap:               0.4
 (Enter /usr/local/g16reva03/legacy_cpu/g16/l702.exe)
 L702 exits ... SP integral derivatives will be done elsewhere.
 Leave Link  702 at Tue Dec 14 13:23:53 2021, MaxMem=  1610612736 cpu:               0.6 elap:               0.1
 (Enter /usr/local/g16reva03/legacy_cpu/g16/l703.exe)
 Integral derivatives from FoFJK, PRISM(SPDF).
 Compute integral first derivatives, UseDBF=F ICtDFT=           0.
 Calling FoFJK, ICntrl=      2127 FMM=F ISym2X=1 I1Cent= 0 IOpClX= 0 NMat=1 NMatS=1 NMatT=0.
 FoFJK:  IHMeth= 1 ICntrl=    2127 DoSepK=F KAlg= 0 I1Cent=           0 FoldK=F
 IRaf=         0 NMat=       1 IRICut=       1 DoRegI=T DoRafI=F ISym2E= 1 IDoP0=0 IntGTp=1.
 FoFCou: FMM=F IPFlag=           0 FMFlag=      100000 FMFlg1=         800
         NFxFlg=           0 DoJE=F BraDBF=F KetDBF=F FulRan=T
         wScrn=  0.000000 ICntrl=      2127 IOpCl=  0 I1Cent=           0 NGrid=           0
         NMat0=    1 NMatS0=      1 NMatT0=    0 NMatD0=    1 NMtDS0=    0 NMtDT0=    0
 Petite list used in FoFCou.
 Leave Link  703 at Tue Dec 14 13:23:54 2021, MaxMem=  1610612736 cpu:               2.4 elap:               0.3
 (Enter /usr/local/g16reva03/legacy_cpu/g16/l716.exe)
 Dipole        = 2.22044605D-16 1.33226763D-15 0.00000000D+00
 ***** Axes restored to original set *****
 -------------------------------------------------------------------
 Center     Atomic                   Forces (Hartrees/Bohr)
 Number     Number              X              Y              Z
 -------------------------------------------------------------------
      1        6          -0.048020034   -0.000000000   -0.029026165
      2        1           0.004361931   -0.000000000    0.003585571
      3        1           0.005663364   -0.000000000    0.002367005
      4        6           0.048020034   -0.000000000    0.029026165
      5        1          -0.004361931   -0.000000000   -0.003585571
      6        1          -0.005663364   -0.000000000   -0.002367005
 -------------------------------------------------------------------
 Cartesian Forces:  Max     0.048020034 RMS     0.018909143
 Leave Link  716 at Tue Dec 14 13:23:54 2021, MaxMem=  1610612736 cpu:               0.4 elap:               0.1
 (Enter /usr/local/g16reva03/legacy_cpu/g16/l103.exe)

 GradGradGradGradGradGradGradGradGradGradGradGradGradGradGradGradGradGrad
 Berny optimization.
 FormGI is forming the generalized inverse of G from B-inverse, IUseBI=4.
 Internal  Forces:  Max     0.044444756 RMS     0.011961654
 Search for a local minimum.
 Step number   1 out of a maximum of   25
 All quantities printed in internal units (Hartrees-Bohrs-Radians)
 RMS Force = .11962D-01 SwitMx=.10000D-02 MixMth= 1
 Mixed Optimization -- RFO/linear search
 Second derivative matrix not updated -- first step.
 The second derivative matrix:
                          R1        R2        R3        R4        R5
           R1           0.37230
           R2           0.00000   0.37230
           R3           0.00000   0.00000   0.53930
           R4           0.00000   0.00000   0.00000   0.37230
           R5           0.00000   0.00000   0.00000   0.00000   0.37230
           A1           0.00000   0.00000   0.00000   0.00000   0.00000
           A2           0.00000   0.00000   0.00000   0.00000   0.00000
           A3           0.00000   0.00000   0.00000   0.00000   0.00000
           A4           0.00000   0.00000   0.00000   0.00000   0.00000
           A5           0.00000   0.00000   0.00000   0.00000   0.00000
           A6           0.00000   0.00000   0.00000   0.00000   0.00000
           D1           0.00000   0.00000   0.00000   0.00000   0.00000
           D2           0.00000   0.00000   0.00000   0.00000   0.00000
           D3           0.00000   0.00000   0.00000   0.00000   0.00000
           D4           0.00000   0.00000   0.00000   0.00000   0.00000
                          A1        A2        A3        A4        A5
           A1           0.16000
           A2           0.00000   0.16000
           A3           0.00000   0.00000   0.16000
           A4           0.00000   0.00000   0.00000   0.16000
           A5           0.00000   0.00000   0.00000   0.00000   0.16000
           A6           0.00000   0.00000   0.00000   0.00000   0.00000
           D1           0.00000   0.00000   0.00000   0.00000   0.00000
           D2           0.00000   0.00000   0.00000   0.00000   0.00000
           D3           0.00000   0.00000   0.00000   0.00000   0.00000
           D4           0.00000   0.00000   0.00000   0.00000   0.00000
                          A6        D1        D2        D3        D4
           A6           0.16000
           D1           0.00000   0.02681
           D2           0.00000   0.00000   0.02681
           D3           0.00000   0.00000   0.00000   0.02681
           D4           0.00000   0.00000   0.00000   0.00000   0.02681
 ITU=  0
     Eigenvalues ---    0.02681   0.02681   0.02681   0.16000   0.16000
     Eigenvalues ---    0.16000   0.16000   0.37230   0.37230   0.37230
     Eigenvalues ---    0.37230   0.53930
 RFO step:  Lambda=-4.48800659D-03 EMin= 2.68137393D-02
 Linear search not attempted -- first point.
 Iteration  1 RMS(Cart)=  0.01607729 RMS(Int)=  0.00020793
 Iteration  2 RMS(Cart)=  0.00021578 RMS(Int)=  0.00000002
 Iteration  3 RMS(Cart)=  0.00000002 RMS(Int)=  0.00000000
 ITry= 1 IFail=0 DXMaxC= 3.42D-02 DCOld= 1.00D+10 DXMaxT= 3.00D-01 DXLimC= 3.00D+00 Rises=F
 ClnCor:  largest displacement from symmetrization is 4.27D-14 for atom     5.
 Variable       Old X    -DE/DX   Delta X   Delta X   Delta X     New X
                                 (Linear)    (Quad)   (Total)
    R1        2.02201   0.00359   0.00000   0.00952   0.00952   2.03152
    R2        2.02201   0.00373   0.00000   0.00990   0.00990   2.03191
    R3        2.56096  -0.04444   0.00000  -0.08173  -0.08173   2.47922
    R4        2.02201   0.00359   0.00000   0.00952   0.00952   2.03152
    R5        2.02201   0.00373   0.00000   0.00990   0.00990   2.03191
    A1        2.09241  -0.00623   0.00000  -0.03785  -0.03785   2.05457
    A2        2.09836   0.00259   0.00000   0.01577   0.01577   2.11413
    A3        2.09241   0.00363   0.00000   0.02207   0.02207   2.11449
    A4        2.09836   0.00259   0.00000   0.01577   0.01577   2.11413
    A5        2.09241   0.00363   0.00000   0.02207   0.02207   2.11449
    A6        2.09241  -0.00623   0.00000  -0.03785  -0.03785   2.05457
    D1        3.14159   0.00000   0.00000  -0.00000   0.00000   3.14159
    D2        0.00000  -0.00000   0.00000  -0.00000   0.00000   0.00000
    D3        0.00000   0.00000   0.00000   0.00000   0.00000   0.00000
    D4        3.14159   0.00000   0.00000   0.00000   0.00000   3.14159
         Item               Value     Threshold  Converged?
 Maximum Force            0.044445     0.000450     NO 
 RMS     Force            0.011962     0.000300     NO 
 Maximum Displacement     0.034165     0.001800     NO 
 RMS     Displacement     0.016149     0.001200     NO 
 Predicted change in Energy=-2.269568D-03
 Lowest energy point so far.  Saving SCF results.
 GradGradGradGradGradGradGradGradGradGradGradGradGradGradGradGradGradGrad

 Leave Link  103 at Tue Dec 14 13:23:54 2021, MaxMem=  1610612736 cpu:               1.8 elap:               0.3
 (Enter /usr/local/g16reva03/legacy_cpu/g16/l202.exe)
                          Input orientation:                          
 ---------------------------------------------------------------------
 Center     Atomic      Atomic             Coordinates (Angstroms)
 Number     Number       Type             X           Y           Z
 ---------------------------------------------------------------------
      1          6           0       -0.018079    0.000000   -0.011929
      2          1           0        0.000853    0.000000    1.062940
      3          1           0        0.924818    0.000000   -0.528732
      4          6           0       -1.152865    0.000000   -0.670315
      5          1           0       -1.171797    0.000000   -1.745184
      6          1           0       -2.095762    0.000000   -0.153512
 ---------------------------------------------------------------------
                    Distance matrix (angstroms):
                    1          2          3          4          5
     1  C    0.000000
     2  H    1.075036   0.000000
     3  H    1.075240   1.840416   0.000000
     4  C    1.311949   2.082123   2.082501   0.000000
     5  H    2.082123   3.043135   2.423953   1.075036   0.000000
     6  H    2.082501   2.423953   3.043796   1.075240   1.840416
                    6
     6  H    0.000000
 Stoichiometry    C2H4
 Framework group  C2H[SGH(C2H4)]
 Deg. of freedom     5
 Full point group                 C2H     NOp   4
 RotChk:  IX=2 Diff= 2.60D-03
 Largest Abelian subgroup         C2H     NOp   4
 Largest concise Abelian subgroup C2      NOp   2
                         Standard orientation:                         
 ---------------------------------------------------------------------
 Center     Atomic      Atomic             Coordinates (Angstroms)
 Number     Number       Type             X           Y           Z
 ---------------------------------------------------------------------
      1          6           0       -0.000000    0.655975   -0.000000
      2          1           0        0.920220    1.211760    0.000000
      3          1           0       -0.920196    1.212193   -0.000000
      4          6           0        0.000000   -0.655975   -0.000000
      5          1           0       -0.920220   -1.211760    0.000000
      6          1           0        0.920196   -1.212193   -0.000000
 ---------------------------------------------------------------------
 Rotational constants (GHZ):         148.0471636          31.1025623          25.7027808
 Leave Link  202 at Tue Dec 14 13:23:55 2021, MaxMem=  1610612736 cpu:               0.1 elap:               0.0
 (Enter /usr/local/g16reva03/legacy_cpu/g16/l301.exe)
 Standard basis: 6-31G(d) (6D, 7F)
 Ernie: Thresh=  0.10000D-02 Tol=  0.10000D-05 Strict=F.
 There are    15 symmetry adapted cartesian basis functions of AG  symmetry.
 There are     4 symmetry adapted cartesian basis functions of BG  symmetry.
 There are     4 symmetry adapted cartesian basis functions of AU  symmetry.
 There are    15 symmetry adapted cartesian basis functions of BU  symmetry.
 There are    15 symmetry adapted basis functions of AG  symmetry.
 There are     4 symmetry adapted basis functions of BG  symmetry.
 There are     4 symmetry adapted basis functions of AU  symmetry.
 There are    15 symmetry adapted basis functions of BU  symmetry.
    38 basis functions,    72 primitive gaussians,    38 cartesian basis functions
     8 alpha electrons        8 beta electrons
       nuclear repulsion energy        33.7918879557 Hartrees.
 IExCor=    0 DFT=F Ex=HF Corr=None ExCW=0 ScaHFX=  1.000000
 ScaDFX=  1.000000  1.000000  1.000000  1.000000 ScalE2=  1.000000  1.000000
 IRadAn=      5 IRanWt=     -1 IRanGd=            0 ICorTp=0 IEmpDi=  4
 NAtoms=    6 NActive=    6 NUniq=    3 SFac= 4.00D+00 NAtFMM=   60 NAOKFM=F Big=F
 Integral buffers will be    131072 words long.
 Raffenetti 1 integral format.
 Two-electron integral symmetry is turned on.
 Leave Link  301 at Tue Dec 14 13:23:55 2021, MaxMem=  1610612736 cpu:               0.8 elap:               0.1
 (Enter /usr/local/g16reva03/legacy_cpu/g16/l302.exe)
 NPDir=0 NMtPBC=     1 NCelOv=     1 NCel=       1 NClECP=     1 NCelD=      1
         NCelK=      1 NCelE2=     1 NClLst=     1 CellRange=     0.0.
 One-electron integrals computed using PRISM.
 One-electron integral symmetry used in STVInt
 NBasis=    38 RedAO= T EigKep=  7.06D-03  NBF=    15     4     4    15
 NBsUse=    38 1.00D-06 EigRej= -1.00D+00 NBFU=    15     4     4    15
 Leave Link  302 at Tue Dec 14 13:23:55 2021, MaxMem=  1610612736 cpu:               1.4 elap:               0.2
 (Enter /usr/local/g16reva03/legacy_cpu/g16/l303.exe)
 DipDrv:  MaxL=1.
 Leave Link  303 at Tue Dec 14 13:23:55 2021, MaxMem=  1610612736 cpu:               0.3 elap:               0.1
 (Enter /usr/local/g16reva03/legacy_cpu/g16/l401.exe)
 Initial guess from the checkpoint file:  "ethylene_opt_singlet.chk"
 B after Tr=     0.000000   -0.000000    0.000000
         Rot=    1.000000    0.000000    0.000000    0.000639 Ang=   0.07 deg.
 Guess basis will be translated and rotated to current coordinates.
 JPrj=2 DoOrth=T DoCkMO=T.
 Initial guess orbital symmetries:
       Occupied  (AG) (BU) (AG) (BU) (BU) (AG) (AG) (AU)
       Virtual   (BG) (AG) (BU) (BU) (AG) (BU) (AG) (BU) (AU) (AG)
                 (BG) (BU) (BU) (AG) (AG) (BU) (BU) (AG) (AU) (BG)
                 (AU) (AG) (BU) (AG) (BU) (BG) (AG) (BU) (AG) (BU)
 The electronic state of the initial guess is 1-AG.
 Generating alternative initial guess.
 ExpMin= 1.61D-01 ExpMax= 3.05D+03 ExpMxC= 4.57D+02 IAcc=2 IRadAn=         4 AccDes= 0.00D+00
 Harris functional with IExCor=  205 and IRadAn=       4 diagonalized for initial guess.
 HarFok:  IExCor=  205 AccDes= 0.00D+00 IRadAn=         4 IDoV= 1 UseB2=F ITyADJ=14
 ICtDFT=  3500011 ScaDFX=  1.000000  1.000000  1.000000  1.000000
 FoFCou: FMM=F IPFlag=           0 FMFlag=      100000 FMFlg1=           0
         NFxFlg=           0 DoJE=T BraDBF=F KetDBF=T FulRan=T
         wScrn=  0.000000 ICntrl=       500 IOpCl=  0 I1Cent=   200000004 NGrid=           0
         NMat0=    1 NMatS0=      1 NMatT0=    0 NMatD0=    1 NMtDS0=    0 NMtDT0=    0
 Petite list used in FoFCou.
 Harris En= -78.2270196145114    
 Leave Link  401 at Tue Dec 14 13:23:56 2021, MaxMem=  1610612736 cpu:               4.0 elap:               0.6
 (Enter /usr/local/g16reva03/legacy_cpu/g16/l502.exe)
 Keep R1 ints in memory in symmetry-blocked form, NReq=1936329.
 FoFCou: FMM=F IPFlag=           0 FMFlag=           0 FMFlg1=           0
         NFxFlg=           0 DoJE=F BraDBF=F KetDBF=F FulRan=T
         wScrn=  0.000000 ICntrl=       600 IOpCl=  0 I1Cent=           0 NGrid=           0
         NMat0=    1 NMatS0=    741 NMatT0=    0 NMatD0=    1 NMtDS0=    0 NMtDT0=    0
 Petite list used in FoFCou.
 Closed shell SCF:
 Using DIIS extrapolation, IDIIS=  1040.
 NGot=  1610612736 LenX=  1610528813 LenY=  1610526928
 Requested convergence on RMS density matrix=1.00D-08 within 128 cycles.
 Requested convergence on MAX density matrix=1.00D-06.
 Requested convergence on             energy=1.00D-06.
 No special actions if energy rises.

 Cycle   1  Pass 1  IDiag  1:
 E= -78.0308392045173    
 DIIS: error= 4.07D-03 at cycle   1 NSaved=   1.
 NSaved= 1 IEnMin= 1 EnMin= -78.0308392045173     IErMin= 1 ErrMin= 4.07D-03
 ErrMax= 4.07D-03  0.00D+00 EMaxC= 1.00D-01 BMatC= 4.47D-04 BMatP= 4.47D-04
 IDIUse=3 WtCom= 9.59D-01 WtEn= 4.07D-02
 Coeff-Com:  0.100D+01
 Coeff-En:   0.100D+01
 Coeff:      0.100D+01
 Gap=     0.561 Goal=   None    Shift=    0.000
 GapD=    0.561 DampG=2.000 DampE=1.000 DampFc=2.0000 IDamp=-1.
 RMSDP=6.27D-04 MaxDP=4.25D-03              OVMax= 8.36D-03

 Cycle   2  Pass 1  IDiag  1:
 E= -78.0314975061275     Delta-E=       -0.000658301610 Rises=F Damp=F
 DIIS: error= 1.63D-03 at cycle   2 NSaved=   2.
 NSaved= 2 IEnMin= 2 EnMin= -78.0314975061275     IErMin= 2 ErrMin= 1.63D-03
 ErrMax= 1.63D-03  0.00D+00 EMaxC= 1.00D-01 BMatC= 3.92D-05 BMatP= 4.47D-04
 IDIUse=3 WtCom= 9.84D-01 WtEn= 1.63D-02
 Coeff-Com: -0.458D-01 0.105D+01
 Coeff-En:   0.000D+00 0.100D+01
 Coeff:     -0.451D-01 0.105D+01
 Gap=     0.560 Goal=   None    Shift=    0.000
 RMSDP=1.98D-04 MaxDP=2.19D-03 DE=-6.58D-04 OVMax= 3.48D-03

 Cycle   3  Pass 1  IDiag  1:
 E= -78.0315524547267     Delta-E=       -0.000054948599 Rises=F Damp=F
 DIIS: error= 5.99D-04 at cycle   3 NSaved=   3.
 NSaved= 3 IEnMin= 3 EnMin= -78.0315524547267     IErMin= 3 ErrMin= 5.99D-04
 ErrMax= 5.99D-04  0.00D+00 EMaxC= 1.00D-01 BMatC= 3.85D-06 BMatP= 3.92D-05
 IDIUse=3 WtCom= 9.94D-01 WtEn= 5.99D-03
 Coeff-Com: -0.875D-01 0.135D+00 0.953D+00
 Coeff-En:   0.000D+00 0.000D+00 0.100D+01
 Coeff:     -0.870D-01 0.134D+00 0.953D+00
 Gap=     0.561 Goal=   None    Shift=    0.000
 RMSDP=6.17D-05 MaxDP=6.14D-04 DE=-5.49D-05 OVMax= 1.13D-03

 Cycle   4  Pass 1  IDiag  1:
 E= -78.0315583546872     Delta-E=       -0.000005899961 Rises=F Damp=F
 DIIS: error= 6.51D-05 at cycle   4 NSaved=   4.
 NSaved= 4 IEnMin= 4 EnMin= -78.0315583546872     IErMin= 4 ErrMin= 6.51D-05
 ErrMax= 6.51D-05  0.00D+00 EMaxC= 1.00D-01 BMatC= 5.42D-08 BMatP= 3.85D-06
 IDIUse=1 WtCom= 1.00D+00 WtEn= 0.00D+00
 Coeff-Com:  0.165D-01-0.462D-01-0.163D+00 0.119D+01
 Coeff:      0.165D-01-0.462D-01-0.163D+00 0.119D+01
 Gap=     0.561 Goal=   None    Shift=    0.000
 RMSDP=1.16D-05 MaxDP=1.07D-04 DE=-5.90D-06 OVMax= 1.47D-04

 Cycle   5  Pass 1  IDiag  1:
 E= -78.0315584788358     Delta-E=       -0.000000124149 Rises=F Damp=F
 DIIS: error= 1.17D-05 at cycle   5 NSaved=   5.
 NSaved= 5 IEnMin= 5 EnMin= -78.0315584788358     IErMin= 5 ErrMin= 1.17D-05
 ErrMax= 1.17D-05  0.00D+00 EMaxC= 1.00D-01 BMatC= 1.47D-09 BMatP= 5.42D-08
 IDIUse=1 WtCom= 1.00D+00 WtEn= 0.00D+00
 Coeff-Com: -0.709D-03 0.480D-02 0.153D-02-0.218D+00 0.121D+01
 Coeff:     -0.709D-03 0.480D-02 0.153D-02-0.218D+00 0.121D+01
 Gap=     0.561 Goal=   None    Shift=    0.000
 RMSDP=2.15D-06 MaxDP=1.69D-05 DE=-1.24D-07 OVMax= 3.08D-05

 Cycle   6  Pass 1  IDiag  1:
 E= -78.0315584824770     Delta-E=       -0.000000003641 Rises=F Damp=F
 DIIS: error= 9.24D-07 at cycle   6 NSaved=   6.
 NSaved= 6 IEnMin= 6 EnMin= -78.0315584824770     IErMin= 6 ErrMin= 9.24D-07
 ErrMax= 9.24D-07  0.00D+00 EMaxC= 1.00D-01 BMatC= 1.63D-11 BMatP= 1.47D-09
 IDIUse=1 WtCom= 1.00D+00 WtEn= 0.00D+00
 Coeff-Com: -0.197D-03 0.278D-03 0.253D-02 0.110D-01-0.180D+00 0.117D+01
 Coeff:     -0.197D-03 0.278D-03 0.253D-02 0.110D-01-0.180D+00 0.117D+01
 Gap=     0.561 Goal=   None    Shift=    0.000
 RMSDP=2.80D-07 MaxDP=2.56D-06 DE=-3.64D-09 OVMax= 3.12D-06

 Cycle   7  Pass 1  IDiag  1:
 E= -78.0315584825111     Delta-E=       -0.000000000034 Rises=F Damp=F
 DIIS: error= 8.74D-08 at cycle   7 NSaved=   7.
 NSaved= 7 IEnMin= 7 EnMin= -78.0315584825111     IErMin= 7 ErrMin= 8.74D-08
 ErrMax= 8.74D-08  0.00D+00 EMaxC= 1.00D-01 BMatC= 1.37D-13 BMatP= 1.63D-11
 IDIUse=1 WtCom= 1.00D+00 WtEn= 0.00D+00
 Coeff-Com:  0.409D-04-0.928D-04-0.495D-03 0.105D-02 0.134D-01-0.175D+00
 Coeff-Com:  0.116D+01
 Coeff:      0.409D-04-0.928D-04-0.495D-03 0.105D-02 0.134D-01-0.175D+00
 Coeff:      0.116D+01
 Gap=     0.561 Goal=   None    Shift=    0.000
 RMSDP=1.85D-08 MaxDP=1.23D-07 DE=-3.41D-11 OVMax= 2.12D-07

 Cycle   8  Pass 1  IDiag  1:
 E= -78.0315584825112     Delta-E=       -0.000000000000 Rises=F Damp=F
 DIIS: error= 5.99D-09 at cycle   8 NSaved=   8.
 NSaved= 8 IEnMin= 8 EnMin= -78.0315584825112     IErMin= 8 ErrMin= 5.99D-09
 ErrMax= 5.99D-09  0.00D+00 EMaxC= 1.00D-01 BMatC= 9.84D-16 BMatP= 1.37D-13
 IDIUse=1 WtCom= 1.00D+00 WtEn= 0.00D+00
 Coeff-Com: -0.655D-05 0.163D-04 0.757D-04-0.256D-03-0.144D-02 0.255D-01
 Coeff-Com: -0.216D+00 0.119D+01
 Coeff:     -0.655D-05 0.163D-04 0.757D-04-0.256D-03-0.144D-02 0.255D-01
 Coeff:     -0.216D+00 0.119D+01
 Gap=     0.561 Goal=   None    Shift=    0.000
 RMSDP=1.74D-09 MaxDP=9.34D-09 DE=-1.56D-13 OVMax= 1.54D-08

 SCF Done:  E(RHF) =  -78.0315584825     A.U. after    8 cycles
            NFock=  8  Conv=0.17D-08     -V/T= 2.0003
 KE= 7.800731927204D+01 PE=-2.489085657600D+02 EE= 5.907780004969D+01
 Leave Link  502 at Tue Dec 14 13:23:56 2021, MaxMem=  1610612736 cpu:               2.5 elap:               0.4
 (Enter /usr/local/g16reva03/legacy_cpu/g16/l701.exe)
 ... and contract with generalized density number  0.
 Compute integral first derivatives.
 Leave Link  701 at Tue Dec 14 13:23:57 2021, MaxMem=  1610612736 cpu:               1.5 elap:               0.2
 (Enter /usr/local/g16reva03/legacy_cpu/g16/l702.exe)
 L702 exits ... SP integral derivatives will be done elsewhere.
 Leave Link  702 at Tue Dec 14 13:23:57 2021, MaxMem=  1610612736 cpu:               0.3 elap:               0.1
 (Enter /usr/local/g16reva03/legacy_cpu/g16/l703.exe)
 Integral derivatives from FoFJK, PRISM(SPDF).
 Compute integral first derivatives, UseDBF=F ICtDFT=           0.
 Calling FoFJK, ICntrl=      2127 FMM=F ISym2X=1 I1Cent= 0 IOpClX= 0 NMat=1 NMatS=1 NMatT=0.
 FoFJK:  IHMeth= 1 ICntrl=    2127 DoSepK=F KAlg= 0 I1Cent=           0 FoldK=F
 IRaf=         0 NMat=       1 IRICut=       1 DoRegI=T DoRafI=F ISym2E= 1 IDoP0=0 IntGTp=1.
 FoFCou: FMM=F IPFlag=           0 FMFlag=      100000 FMFlg1=         800
         NFxFlg=           0 DoJE=F BraDBF=F KetDBF=F FulRan=T
         wScrn=  0.000000 ICntrl=      2127 IOpCl=  0 I1Cent=           0 NGrid=           0
         NMat0=    1 NMatS0=      1 NMatT0=    0 NMatD0=    1 NMtDS0=    0 NMtDT0=    0
 Petite list used in FoFCou.
 Leave Link  703 at Tue Dec 14 13:23:57 2021, MaxMem=  1610612736 cpu:               2.3 elap:               0.3
 (Enter /usr/local/g16reva03/legacy_cpu/g16/l716.exe)
 Dipole        = 2.22044605D-16 0.00000000D+00-1.34260033D-32
 ***** Axes restored to original set *****
 -------------------------------------------------------------------
 Center     Atomic                   Forces (Hartrees/Bohr)
 Number     Number              X              Y              Z
 -------------------------------------------------------------------
      1        6           0.003594912   -0.000000000    0.002011832
      2        1           0.002468429    0.000000000    0.000558817
      3        1           0.001549730   -0.000000000    0.001913113
      4        6          -0.003594912    0.000000000   -0.002011832
      5        1          -0.002468429   -0.000000000   -0.000558817
      6        1          -0.001549730    0.000000000   -0.001913113
 -------------------------------------------------------------------
 Cartesian Forces:  Max     0.003594912 RMS     0.001808558
 Leave Link  716 at Tue Dec 14 13:23:57 2021, MaxMem=  1610612736 cpu:               0.3 elap:               0.1
 (Enter /usr/local/g16reva03/legacy_cpu/g16/l103.exe)

 GradGradGradGradGradGradGradGradGradGradGradGradGradGradGradGradGradGrad
 Berny optimization.
 Using GEDIIS/GDIIS optimizer.
 FormGI is forming the generalized inverse of G from B-inverse, IUseBI=4.
 Internal  Forces:  Max     0.008835137 RMS     0.002731952
 Search for a local minimum.
 Step number   2 out of a maximum of   25
 All quantities printed in internal units (Hartrees-Bohrs-Radians)
 RMS Force = .27320D-02 SwitMx=.10000D-02 MixMth= 1
 Mixed Optimization -- RFO/linear search
 Update second derivatives using D2CorX and points    1    2
 DE= -2.17D-03 DEPred=-2.27D-03 R= 9.55D-01
 TightC=F SS=  1.41D+00  RLast= 1.07D-01 DXNew= 5.0454D-01 3.2023D-01
 Trust test= 9.55D-01 RLast= 1.07D-01 DXMaxT set to 3.20D-01
 The second derivative matrix:
                          R1        R2        R3        R4        R5
           R1           0.37132
           R2          -0.00090   0.37149
           R3           0.00219   0.00020   0.69095
           R4          -0.00098  -0.00090   0.00219   0.37132
           R5          -0.00090  -0.00081   0.00020  -0.00090   0.37149
           A1           0.00303   0.00304  -0.02785   0.00303   0.00304
           A2          -0.00145  -0.00148   0.01505  -0.00145  -0.00148
           A3          -0.00157  -0.00156   0.01280  -0.00157  -0.00156
           A4          -0.00145  -0.00148   0.01505  -0.00145  -0.00148
           A5          -0.00157  -0.00156   0.01280  -0.00157  -0.00156
           A6           0.00303   0.00304  -0.02785   0.00303   0.00304
           D1           0.00000   0.00000  -0.00000   0.00000   0.00000
           D2          -0.00000  -0.00000   0.00000  -0.00000  -0.00000
           D3           0.00000   0.00000  -0.00000   0.00000   0.00000
           D4           0.00000   0.00000  -0.00000   0.00000   0.00000
                          A1        A2        A3        A4        A5
           A1           0.15351
           A2           0.00290   0.15873
           A3           0.00360  -0.00163   0.15803
           A4           0.00290  -0.00127  -0.00163   0.15873
           A5           0.00360  -0.00163  -0.00197  -0.00163   0.15803
           A6          -0.00649   0.00290   0.00360   0.00290   0.00360
           D1          -0.00000   0.00000   0.00000   0.00000   0.00000
           D2           0.00000  -0.00000  -0.00000  -0.00000  -0.00000
           D3          -0.00000   0.00000   0.00000   0.00000   0.00000
           D4          -0.00000   0.00000   0.00000   0.00000   0.00000
                          A6        D1        D2        D3        D4
           A6           0.15351
           D1          -0.00000   0.02681
           D2           0.00000  -0.00000   0.02681
           D3          -0.00000   0.00000  -0.00000   0.02681
           D4          -0.00000   0.00000  -0.00000   0.00000   0.02681
 ITU=  1  0
 Use linear search instead of GDIIS.
     Eigenvalues ---    0.02681   0.02681   0.02681   0.13579   0.16000
     Eigenvalues ---    0.16000   0.16006   0.36917   0.37230   0.37230
     Eigenvalues ---    0.37231   0.69518
 RFO step:  Lambda=-2.99341872D-04 EMin= 2.68137393D-02
 Quartic linear search produced a step of -0.06159.
 Iteration  1 RMS(Cart)=  0.01422775 RMS(Int)=  0.00006674
 Iteration  2 RMS(Cart)=  0.00006704 RMS(Int)=  0.00000000
 Iteration  3 RMS(Cart)=  0.00000000 RMS(Int)=  0.00000000
 ITry= 1 IFail=0 DXMaxC= 2.71D-02 DCOld= 1.00D+10 DXMaxT= 3.20D-01 DXLimC= 3.00D+00 Rises=F
 ClnCor:  largest displacement from symmetrization is 4.84D-14 for atom     5.
 Variable       Old X    -DE/DX   Delta X   Delta X   Delta X     New X
                                 (Linear)    (Quad)   (Total)
    R1        2.03152   0.00060  -0.00059   0.00278   0.00219   2.03372
    R2        2.03191   0.00044  -0.00061   0.00242   0.00181   2.03372
    R3        2.47922   0.00884   0.00503   0.00471   0.00974   2.48897
    R4        2.03152   0.00060  -0.00059   0.00278   0.00219   2.03372
    R5        2.03191   0.00044  -0.00061   0.00242   0.00181   2.03372
    A1        2.05457  -0.00331   0.00233  -0.02477  -0.02243   2.03213
    A2        2.11413   0.00169  -0.00097   0.01214   0.01117   2.12530
    A3        2.11449   0.00162  -0.00136   0.01262   0.01126   2.12575
    A4        2.11413   0.00169  -0.00097   0.01214   0.01117   2.12530
    A5        2.11449   0.00162  -0.00136   0.01262   0.01126   2.12575
    A6        2.05457  -0.00331   0.00233  -0.02477  -0.02243   2.03213
    D1        3.14159   0.00000   0.00000   0.00000   0.00000   3.14159
    D2       -0.00000  -0.00000   0.00000  -0.00000   0.00000   0.00000
    D3       -0.00000   0.00000   0.00000   0.00000   0.00000   0.00000
    D4        3.14159  -0.00000   0.00000   0.00000   0.00000   3.14159
         Item               Value     Threshold  Converged?
 Maximum Force            0.008835     0.000450     NO 
 RMS     Force            0.002732     0.000300     NO 
 Maximum Displacement     0.027099     0.001800     NO 
 RMS     Displacement     0.014228     0.001200     NO 
 Predicted change in Energy=-1.541851D-04
 Lowest energy point so far.  Saving SCF results.
 GradGradGradGradGradGradGradGradGradGradGradGradGradGradGradGradGradGrad

 Leave Link  103 at Tue Dec 14 13:23:57 2021, MaxMem=  1610612736 cpu:               0.2 elap:               0.1
 (Enter /usr/local/g16reva03/legacy_cpu/g16/l202.exe)
                          Input orientation:                          
 ---------------------------------------------------------------------
 Center     Atomic      Atomic             Coordinates (Angstroms)
 Number     Number       Type             X           Y           Z
 ---------------------------------------------------------------------
      1          6           0       -0.015833   -0.000000   -0.010665
      2          1           0        0.015193   -0.000000    1.065085
      3          1           0        0.933645    0.000000   -0.517314
      4          6           0       -1.155111    0.000000   -0.671579
      5          1           0       -1.186137    0.000000   -1.747328
      6          1           0       -2.104590   -0.000000   -0.164929
 ---------------------------------------------------------------------
                    Distance matrix (angstroms):
                    1          2          3          4          5
     1  C    0.000000
     2  H    1.076197   0.000000
     3  H    1.076198   1.829629   0.000000
     4  C    1.317104   2.094185   2.094446   0.000000
     5  H    2.094185   3.058244   2.450798   1.076197   0.000000
     6  H    2.094446   2.450798   3.058602   1.076198   1.829629
                    6
     6  H    0.000000
 Stoichiometry    C2H4
 Framework group  C2H[SGH(C2H4)]
 Deg. of freedom     5
 Full point group                 C2H     NOp   4
 RotChk:  IX=2 Diff= 7.32D-05
 Largest Abelian subgroup         C2H     NOp   4
 Largest concise Abelian subgroup C2      NOp   2
                         Standard orientation:                         
 ---------------------------------------------------------------------
 Center     Atomic      Atomic             Coordinates (Angstroms)
 Number     Number       Type             X           Y           Z
 ---------------------------------------------------------------------
      1          6           0       -0.000000    0.658552    0.000000
      2          1           0        0.914941    1.225193    0.000000
      3          1           0       -0.914687    1.225606    0.000000
      4          6           0        0.000000   -0.658552    0.000000
      5          1           0       -0.914941   -1.225193    0.000000
      6          1           0        0.914687   -1.225606    0.000000
 ---------------------------------------------------------------------
 Rotational constants (GHZ):         149.7980599          30.6997612          25.4782281
 Leave Link  202 at Tue Dec 14 13:23:57 2021, MaxMem=  1610612736 cpu:               0.1 elap:               0.0
 (Enter /usr/local/g16reva03/legacy_cpu/g16/l301.exe)
 Standard basis: 6-31G(d) (6D, 7F)
 Ernie: Thresh=  0.10000D-02 Tol=  0.10000D-05 Strict=F.
 There are    15 symmetry adapted cartesian basis functions of AG  symmetry.
 There are     4 symmetry adapted cartesian basis functions of BG  symmetry.
 There are     4 symmetry adapted cartesian basis functions of AU  symmetry.
 There are    15 symmetry adapted cartesian basis functions of BU  symmetry.
 There are    15 symmetry adapted basis functions of AG  symmetry.
 There are     4 symmetry adapted basis functions of BG  symmetry.
 There are     4 symmetry adapted basis functions of AU  symmetry.
 There are    15 symmetry adapted basis functions of BU  symmetry.
    38 basis functions,    72 primitive gaussians,    38 cartesian basis functions
     8 alpha electrons        8 beta electrons
       nuclear repulsion energy        33.6853798837 Hartrees.
 IExCor=    0 DFT=F Ex=HF Corr=None ExCW=0 ScaHFX=  1.000000
 ScaDFX=  1.000000  1.000000  1.000000  1.000000 ScalE2=  1.000000  1.000000
 IRadAn=      5 IRanWt=     -1 IRanGd=            0 ICorTp=0 IEmpDi=  4
 NAtoms=    6 NActive=    6 NUniq=    3 SFac= 4.00D+00 NAtFMM=   60 NAOKFM=F Big=F
 Integral buffers will be    131072 words long.
 Raffenetti 1 integral format.
 Two-electron integral symmetry is turned on.
 Leave Link  301 at Tue Dec 14 13:23:58 2021, MaxMem=  1610612736 cpu:               0.8 elap:               0.1
 (Enter /usr/local/g16reva03/legacy_cpu/g16/l302.exe)
 NPDir=0 NMtPBC=     1 NCelOv=     1 NCel=       1 NClECP=     1 NCelD=      1
         NCelK=      1 NCelE2=     1 NClLst=     1 CellRange=     0.0.
 One-electron integrals computed using PRISM.
 One-electron integral symmetry used in STVInt
 NBasis=    38 RedAO= T EigKep=  7.26D-03  NBF=    15     4     4    15
 NBsUse=    38 1.00D-06 EigRej= -1.00D+00 NBFU=    15     4     4    15
 Leave Link  302 at Tue Dec 14 13:23:58 2021, MaxMem=  1610612736 cpu:               1.4 elap:               0.2
 (Enter /usr/local/g16reva03/legacy_cpu/g16/l303.exe)
 DipDrv:  MaxL=1.
 Leave Link  303 at Tue Dec 14 13:23:58 2021, MaxMem=  1610612736 cpu:               0.3 elap:               0.1
 (Enter /usr/local/g16reva03/legacy_cpu/g16/l401.exe)
 Initial guess from the checkpoint file:  "ethylene_opt_singlet.chk"
 B after Tr=    -0.000000    0.000000    0.000000
         Rot=    1.000000    0.000000   -0.000000    0.000018 Ang=   0.00 deg.
 Guess basis will be translated and rotated to current coordinates.
 JPrj=2 DoOrth=T DoCkMO=T.
 Initial guess orbital symmetries:
       Occupied  (AG) (BU) (AG) (BU) (BU) (AG) (AG) (AU)
       Virtual   (BG) (AG) (BU) (BU) (AG) (BU) (AG) (AU) (BU) (AG)
                 (BG) (BU) (BU) (AG) (AG) (BU) (BU) (AG) (AU) (BG)
                 (AU) (AG) (BU) (AG) (BU) (BG) (AG) (BU) (AG) (BU)
 The electronic state of the initial guess is 1-AG.
 Generating alternative initial guess.
 ExpMin= 1.61D-01 ExpMax= 3.05D+03 ExpMxC= 4.57D+02 IAcc=2 IRadAn=         4 AccDes= 0.00D+00
 Harris functional with IExCor=  205 and IRadAn=       4 diagonalized for initial guess.
 HarFok:  IExCor=  205 AccDes= 0.00D+00 IRadAn=         4 IDoV= 1 UseB2=F ITyADJ=14
 ICtDFT=  3500011 ScaDFX=  1.000000  1.000000  1.000000  1.000000
 FoFCou: FMM=F IPFlag=           0 FMFlag=      100000 FMFlg1=           0
         NFxFlg=           0 DoJE=T BraDBF=F KetDBF=T FulRan=T
         wScrn=  0.000000 ICntrl=       500 IOpCl=  0 I1Cent=   200000004 NGrid=           0
         NMat0=    1 NMatS0=      1 NMatT0=    0 NMatD0=    1 NMtDS0=    0 NMtDT0=    0
 Petite list used in FoFCou.
 Harris En= -78.2256176378779    
 Leave Link  401 at Tue Dec 14 13:23:58 2021, MaxMem=  1610612736 cpu:               3.2 elap:               0.4
 (Enter /usr/local/g16reva03/legacy_cpu/g16/l502.exe)
 Keep R1 ints in memory in symmetry-blocked form, NReq=1936329.
 FoFCou: FMM=F IPFlag=           0 FMFlag=           0 FMFlg1=           0
         NFxFlg=           0 DoJE=F BraDBF=F KetDBF=F FulRan=T
         wScrn=  0.000000 ICntrl=       600 IOpCl=  0 I1Cent=           0 NGrid=           0
         NMat0=    1 NMatS0=    741 NMatT0=    0 NMatD0=    1 NMtDS0=    0 NMtDT0=    0
 Petite list used in FoFCou.
 Closed shell SCF:
 Using DIIS extrapolation, IDIIS=  1040.
 NGot=  1610612736 LenX=  1610528813 LenY=  1610526928
 Requested convergence on RMS density matrix=1.00D-08 within 128 cycles.
 Requested convergence on MAX density matrix=1.00D-06.
 Requested convergence on             energy=1.00D-06.
 No special actions if energy rises.

 Cycle   1  Pass 1  IDiag  1:
 E= -78.0316915589200    
 DIIS: error= 7.21D-04 at cycle   1 NSaved=   1.
 NSaved= 1 IEnMin= 1 EnMin= -78.0316915589200     IErMin= 1 ErrMin= 7.21D-04
 ErrMax= 7.21D-04  0.00D+00 EMaxC= 1.00D-01 BMatC= 2.36D-05 BMatP= 2.36D-05
 IDIUse=3 WtCom= 9.93D-01 WtEn= 7.21D-03
 Coeff-Com:  0.100D+01
 Coeff-En:   0.100D+01
 Coeff:      0.100D+01
 Gap=     0.558 Goal=   None    Shift=    0.000
 RMSDP=1.17D-04 MaxDP=7.02D-04              OVMax= 1.67D-03

 Cycle   2  Pass 1  IDiag  1:
 E= -78.0317160989370     Delta-E=       -0.000024540017 Rises=F Damp=F
 DIIS: error= 2.04D-04 at cycle   2 NSaved=   2.
 NSaved= 2 IEnMin= 2 EnMin= -78.0317160989370     IErMin= 2 ErrMin= 2.04D-04
 ErrMax= 2.04D-04  0.00D+00 EMaxC= 1.00D-01 BMatC= 1.49D-06 BMatP= 2.36D-05
 IDIUse=3 WtCom= 9.98D-01 WtEn= 2.04D-03
 Coeff-Com:  0.679D-01 0.932D+00
 Coeff-En:   0.000D+00 0.100D+01
 Coeff:      0.678D-01 0.932D+00
 Gap=     0.558 Goal=   None    Shift=    0.000
 RMSDP=2.82D-05 MaxDP=2.26D-04 DE=-2.45D-05 OVMax= 4.29D-04

 Cycle   3  Pass 1  IDiag  1:
 E= -78.0317176077200     Delta-E=       -0.000001508783 Rises=F Damp=F
 DIIS: error= 8.38D-05 at cycle   3 NSaved=   3.
 NSaved= 3 IEnMin= 3 EnMin= -78.0317176077200     IErMin= 3 ErrMin= 8.38D-05
 ErrMax= 8.38D-05  0.00D+00 EMaxC= 1.00D-01 BMatC= 1.01D-07 BMatP= 1.49D-06
 IDIUse=1 WtCom= 1.00D+00 WtEn= 0.00D+00
 Coeff-Com: -0.445D-01 0.741D-01 0.970D+00
 Coeff:     -0.445D-01 0.741D-01 0.970D+00
 Gap=     0.558 Goal=   None    Shift=    0.000
 RMSDP=9.39D-06 MaxDP=9.42D-05 DE=-1.51D-06 OVMax= 1.47D-04

 Cycle   4  Pass 1  IDiag  1:
 E= -78.0317177499970     Delta-E=       -0.000000142277 Rises=F Damp=F
 DIIS: error= 1.38D-05 at cycle   4 NSaved=   4.
 NSaved= 4 IEnMin= 4 EnMin= -78.0317177499970     IErMin= 4 ErrMin= 1.38D-05
 ErrMax= 1.38D-05  0.00D+00 EMaxC= 1.00D-01 BMatC= 2.89D-09 BMatP= 1.01D-07
 IDIUse=1 WtCom= 1.00D+00 WtEn= 0.00D+00
 Coeff-Com:  0.251D-02-0.393D-01-0.518D-01 0.109D+01
 Coeff:      0.251D-02-0.393D-01-0.518D-01 0.109D+01
 Gap=     0.558 Goal=   None    Shift=    0.000
 RMSDP=1.82D-06 MaxDP=1.54D-05 DE=-1.42D-07 OVMax= 3.01D-05

 Cycle   5  Pass 1  IDiag  1:
 E= -78.0317177548630     Delta-E=       -0.000000004866 Rises=F Damp=F
 DIIS: error= 1.91D-06 at cycle   5 NSaved=   5.
 NSaved= 5 IEnMin= 5 EnMin= -78.0317177548630     IErMin= 5 ErrMin= 1.91D-06
 ErrMax= 1.91D-06  0.00D+00 EMaxC= 1.00D-01 BMatC= 8.44D-11 BMatP= 2.89D-09
 IDIUse=1 WtCom= 1.00D+00 WtEn= 0.00D+00
 Coeff-Com:  0.108D-02 0.511D-02-0.195D-01-0.229D+00 0.124D+01
 Coeff:      0.108D-02 0.511D-02-0.195D-01-0.229D+00 0.124D+01
 Gap=     0.558 Goal=   None    Shift=    0.000
 RMSDP=4.69D-07 MaxDP=3.92D-06 DE=-4.87D-09 OVMax= 6.57D-06

 Cycle   6  Pass 1  IDiag  1:
 E= -78.0317177550517     Delta-E=       -0.000000000189 Rises=F Damp=F
 DIIS: error= 3.16D-07 at cycle   6 NSaved=   6.
 NSaved= 6 IEnMin= 6 EnMin= -78.0317177550517     IErMin= 6 ErrMin= 3.16D-07
 ErrMax= 3.16D-07  0.00D+00 EMaxC= 1.00D-01 BMatC= 1.03D-12 BMatP= 8.44D-11
 IDIUse=1 WtCom= 1.00D+00 WtEn= 0.00D+00
 Coeff-Com: -0.295D-03-0.771D-03 0.553D-02 0.462D-01-0.330D+00 0.128D+01
 Coeff:     -0.295D-03-0.771D-03 0.553D-02 0.462D-01-0.330D+00 0.128D+01
 Gap=     0.558 Goal=   None    Shift=    0.000
 RMSDP=7.15D-08 MaxDP=5.61D-07 DE=-1.89D-10 OVMax= 8.79D-07

 Cycle   7  Pass 1  IDiag  1:
 E= -78.0317177550541     Delta-E=       -0.000000000002 Rises=F Damp=F
 DIIS: error= 1.81D-08 at cycle   7 NSaved=   7.
 NSaved= 7 IEnMin= 7 EnMin= -78.0317177550541     IErMin= 7 ErrMin= 1.81D-08
 ErrMax= 1.81D-08  0.00D+00 EMaxC= 1.00D-01 BMatC= 7.12D-15 BMatP= 1.03D-12
 IDIUse=1 WtCom= 1.00D+00 WtEn= 0.00D+00
 Coeff-Com:  0.409D-04 0.129D-03-0.841D-03-0.711D-02 0.508D-01-0.240D+00
 Coeff-Com:  0.120D+01
 Coeff:      0.409D-04 0.129D-03-0.841D-03-0.711D-02 0.508D-01-0.240D+00
 Coeff:      0.120D+01
 Gap=     0.558 Goal=   None    Shift=    0.000
 RMSDP=4.83D-09 MaxDP=3.66D-08 DE=-2.37D-12 OVMax= 5.81D-08

 SCF Done:  E(RHF) =  -78.0317177551     A.U. after    7 cycles
            NFock=  7  Conv=0.48D-08     -V/T= 2.0007
 KE= 7.798098091539D+01 PE=-2.486694909262D+02 EE= 5.897141237208D+01
 Leave Link  502 at Tue Dec 14 13:23:59 2021, MaxMem=  1610612736 cpu:               2.1 elap:               0.3
 (Enter /usr/local/g16reva03/legacy_cpu/g16/l701.exe)
 ... and contract with generalized density number  0.
 Compute integral first derivatives.
 Leave Link  701 at Tue Dec 14 13:23:59 2021, MaxMem=  1610612736 cpu:               1.5 elap:               0.2
 (Enter /usr/local/g16reva03/legacy_cpu/g16/l702.exe)
 L702 exits ... SP integral derivatives will be done elsewhere.
 Leave Link  702 at Tue Dec 14 13:23:59 2021, MaxMem=  1610612736 cpu:               0.3 elap:               0.1
 (Enter /usr/local/g16reva03/legacy_cpu/g16/l703.exe)
 Integral derivatives from FoFJK, PRISM(SPDF).
 Compute integral first derivatives, UseDBF=F ICtDFT=           0.
 Calling FoFJK, ICntrl=      2127 FMM=F ISym2X=1 I1Cent= 0 IOpClX= 0 NMat=1 NMatS=1 NMatT=0.
 FoFJK:  IHMeth= 1 ICntrl=    2127 DoSepK=F KAlg= 0 I1Cent=           0 FoldK=F
 IRaf=         0 NMat=       1 IRICut=       1 DoRegI=T DoRafI=F ISym2E= 1 IDoP0=0 IntGTp=1.
 FoFCou: FMM=F IPFlag=           0 FMFlag=      100000 FMFlg1=         800
         NFxFlg=           0 DoJE=F BraDBF=F KetDBF=F FulRan=T
         wScrn=  0.000000 ICntrl=      2127 IOpCl=  0 I1Cent=           0 NGrid=           0
         NMat0=    1 NMatS0=      1 NMatT0=    0 NMatD0=    1 NMtDS0=    0 NMtDT0=    0
 Petite list used in FoFCou.
 Leave Link  703 at Tue Dec 14 13:23:59 2021, MaxMem=  1610612736 cpu:               2.2 elap:               0.3
 (Enter /usr/local/g16reva03/legacy_cpu/g16/l716.exe)
 Dipole        = 0.00000000D+00 0.00000000D+00 3.36403036D-32
 ***** Axes restored to original set *****
 -------------------------------------------------------------------
 Center     Atomic                   Forces (Hartrees/Bohr)
 Number     Number              X              Y              Z
 -------------------------------------------------------------------
      1        6          -0.000181702   -0.000000000   -0.000023942
      2        1           0.000115719    0.000000000   -0.000167692
      3        1          -0.000117223   -0.000000000    0.000156471
      4        6           0.000181702    0.000000000    0.000023942
      5        1          -0.000115719   -0.000000000    0.000167692
      6        1           0.000117223    0.000000000   -0.000156471
 -------------------------------------------------------------------
 Cartesian Forces:  Max     0.000181702 RMS     0.000112213
 Leave Link  716 at Tue Dec 14 13:23:59 2021, MaxMem=  1610612736 cpu:               0.3 elap:               0.1
 (Enter /usr/local/g16reva03/legacy_cpu/g16/l103.exe)

 GradGradGradGradGradGradGradGradGradGradGradGradGradGradGradGradGradGrad
 Berny optimization.
 Using GEDIIS/GDIIS optimizer.
 FormGI is forming the generalized inverse of G from B-inverse, IUseBI=4.
 Internal  Forces:  Max     0.000177083 RMS     0.000118489
 Search for a local minimum.
 Step number   3 out of a maximum of   25
 All quantities printed in internal units (Hartrees-Bohrs-Radians)
 RMS Force = .11849D-03 SwitMx=.10000D-02 MixMth= 2
 Mixed Optimization -- En-DIIS/RFO-DIIS
 Update second derivatives using D2CorX and points    1    2    3
 DE= -1.59D-04 DEPred=-1.54D-04 R= 1.03D+00
 TightC=F SS=  1.41D+00  RLast= 4.03D-02 DXNew= 5.3855D-01 1.2079D-01
 Trust test= 1.03D+00 RLast= 4.03D-02 DXMaxT set to 3.20D-01
 The second derivative matrix:
                          R1        R2        R3        R4        R5
           R1           0.37230
           R2           0.00003   0.37237
           R3           0.00614   0.00408   0.71445
           R4          -0.00000   0.00003   0.00614   0.37230
           R5           0.00003   0.00007   0.00408   0.00003   0.37237
           A1           0.00164   0.00146  -0.02987   0.00164   0.00146
           A2          -0.00087  -0.00078   0.01552  -0.00087  -0.00078
           A3          -0.00077  -0.00067   0.01435  -0.00077  -0.00067
           A4          -0.00087  -0.00078   0.01552  -0.00087  -0.00078
           A5          -0.00077  -0.00067   0.01435  -0.00077  -0.00067
           A6           0.00164   0.00146  -0.02987   0.00164   0.00146
           D1           0.00000   0.00000  -0.00000   0.00000   0.00000
           D2          -0.00000  -0.00000   0.00000  -0.00000  -0.00000
           D3           0.00000   0.00000  -0.00000   0.00000   0.00000
           D4           0.00000   0.00000  -0.00000   0.00000   0.00000
                          A1        A2        A3        A4        A5
           A1           0.14959
           A2           0.00521   0.15741
           A3           0.00520  -0.00261   0.15741
           A4           0.00521  -0.00259  -0.00261   0.15741
           A5           0.00520  -0.00261  -0.00259  -0.00261   0.15741
           A6          -0.01041   0.00521   0.00520   0.00521   0.00520
           D1          -0.00000   0.00000   0.00000   0.00000   0.00000
           D2           0.00000  -0.00000  -0.00000  -0.00000  -0.00000
           D3          -0.00000   0.00000   0.00000   0.00000   0.00000
           D4          -0.00000  -0.00000   0.00000  -0.00000   0.00000
                          A6        D1        D2        D3        D4
           A6           0.14959
           D1          -0.00000   0.02681
           D2           0.00000  -0.00000   0.02681
           D3          -0.00000   0.00000  -0.00000   0.02681
           D4          -0.00000   0.00000  -0.00000   0.00000   0.02681
 ITU=  1  1  0
 Use linear search instead of GDIIS.
     Eigenvalues ---    0.02681   0.02681   0.02681   0.12408   0.16000
     Eigenvalues ---    0.16000   0.16005   0.37219   0.37230   0.37230
     Eigenvalues ---    0.37243   0.71927
 RFO step:  Lambda=-7.49612297D-07 EMin= 2.68137393D-02
 Quartic linear search produced a step of  0.02028.
 Iteration  1 RMS(Cart)=  0.00060221 RMS(Int)=  0.00000021
 Iteration  2 RMS(Cart)=  0.00000023 RMS(Int)=  0.00000000
 ITry= 1 IFail=0 DXMaxC= 1.12D-03 DCOld= 1.00D+10 DXMaxT= 3.20D-01 DXLimC= 3.00D+00 Rises=F
 ClnCor:  largest displacement from symmetrization is 1.77D-14 for atom     6.
 Variable       Old X    -DE/DX   Delta X   Delta X   Delta X     New X
                                 (Linear)    (Quad)   (Total)
    R1        2.03372  -0.00016   0.00004  -0.00046  -0.00042   2.03330
    R2        2.03372  -0.00018   0.00004  -0.00049  -0.00046   2.03326
    R3        2.48897  -0.00018   0.00020  -0.00058  -0.00038   2.48859
    R4        2.03372  -0.00016   0.00004  -0.00046  -0.00042   2.03330
    R5        2.03372  -0.00018   0.00004  -0.00049  -0.00046   2.03326
    A1        2.03213  -0.00014  -0.00046  -0.00068  -0.00114   2.03099
    A2        2.12530   0.00011   0.00023   0.00058   0.00081   2.12611
    A3        2.12575   0.00003   0.00023   0.00010   0.00033   2.12608
    A4        2.12530   0.00011   0.00023   0.00058   0.00081   2.12611
    A5        2.12575   0.00003   0.00023   0.00010   0.00033   2.12608
    A6        2.03213  -0.00014  -0.00046  -0.00068  -0.00114   2.03099
    D1        3.14159  -0.00000   0.00000   0.00000   0.00000   3.14159
    D2        0.00000   0.00000   0.00000   0.00000  -0.00000   0.00000
    D3       -0.00000   0.00000   0.00000  -0.00000   0.00000   0.00000
    D4        3.14159  -0.00000   0.00000   0.00000   0.00000   3.14159
         Item               Value     Threshold  Converged?
 Maximum Force            0.000177     0.000450     YES
 RMS     Force            0.000118     0.000300     YES
 Maximum Displacement     0.001119     0.001800     YES
 RMS     Displacement     0.000602     0.001200     YES
 Predicted change in Energy=-4.368059D-07
 Optimization completed.
    -- Stationary point found.
                           ----------------------------
                           !   Optimized Parameters   !
                           ! (Angstroms and Degrees)  !
 --------------------------                            --------------------------
 ! Name  Definition              Value          Derivative Info.                !
 --------------------------------------------------------------------------------
 ! R1    R(1,2)                  1.0762         -DE/DX =   -0.0002              !
 ! R2    R(1,3)                  1.0762         -DE/DX =   -0.0002              !
 ! R3    R(1,4)                  1.3171         -DE/DX =   -0.0002              !
 ! R4    R(4,5)                  1.0762         -DE/DX =   -0.0002              !
 ! R5    R(4,6)                  1.0762         -DE/DX =   -0.0002              !
 ! A1    A(2,1,3)              116.4327         -DE/DX =   -0.0001              !
 ! A2    A(2,1,4)              121.7707         -DE/DX =    0.0001              !
 ! A3    A(3,1,4)              121.7965         -DE/DX =    0.0                 !
 ! A4    A(1,4,5)              121.7707         -DE/DX =    0.0001              !
 ! A5    A(1,4,6)              121.7965         -DE/DX =    0.0                 !
 ! A6    A(5,4,6)              116.4327         -DE/DX =   -0.0001              !
 ! D1    D(2,1,4,5)            180.0            -DE/DX =    0.0                 !
 ! D2    D(2,1,4,6)              0.0            -DE/DX =    0.0                 !
 ! D3    D(3,1,4,5)              0.0            -DE/DX =    0.0                 !
 ! D4    D(3,1,4,6)            180.0            -DE/DX =    0.0                 !
 --------------------------------------------------------------------------------
 Lowest energy point so far.  Saving SCF results.
 Largest change from initial coordinates is atom    3       0.020 Angstoms.
 GradGradGradGradGradGradGradGradGradGradGradGradGradGradGradGradGradGrad

 Leave Link  103 at Tue Dec 14 13:23:59 2021, MaxMem=  1610612736 cpu:               0.1 elap:               0.1
 (Enter /usr/local/g16reva03/legacy_cpu/g16/l202.exe)
                          Input orientation:                          
 ---------------------------------------------------------------------
 Center     Atomic      Atomic             Coordinates (Angstroms)
 Number     Number       Type             X           Y           Z
 ---------------------------------------------------------------------
      1          6           0       -0.015833    0.000000   -0.010665
      2          1           0        0.015193   -0.000000    1.065085
      3          1           0        0.933645    0.000000   -0.517314
      4          6           0       -1.155111   -0.000000   -0.671579
      5          1           0       -1.186137    0.000000   -1.747328
      6          1           0       -2.104590   -0.000000   -0.164929
 ---------------------------------------------------------------------
                    Distance matrix (angstroms):
                    1          2          3          4          5
     1  C    0.000000
     2  H    1.076197   0.000000
     3  H    1.076198   1.829629   0.000000
     4  C    1.317104   2.094185   2.094446   0.000000
     5  H    2.094185   3.058244   2.450798   1.076197   0.000000
     6  H    2.094446   2.450798   3.058602   1.076198   1.829629
                    6
     6  H    0.000000
 Stoichiometry    C2H4
 Framework group  C2H[SGH(C2H4)]
 Deg. of freedom     5
 Full point group                 C2H     NOp   4
 RotChk:  IX=2 Diff= 1.76D-16
 Largest Abelian subgroup         C2H     NOp   4
 Largest concise Abelian subgroup C2      NOp   2
                         Standard orientation:                         
 ---------------------------------------------------------------------
 Center     Atomic      Atomic             Coordinates (Angstroms)
 Number     Number       Type             X           Y           Z
 ---------------------------------------------------------------------
      1          6           0        0.000000    0.658552    0.000000
      2          1           0        0.914941    1.225193    0.000000
      3          1           0       -0.914687    1.225606    0.000000
      4          6           0        0.000000   -0.658552    0.000000
      5          1           0       -0.914941   -1.225193    0.000000
      6          1           0        0.914687   -1.225606    0.000000
 ---------------------------------------------------------------------
 Rotational constants (GHZ):         149.7980599          30.6997612          25.4782281
 Leave Link  202 at Tue Dec 14 13:23:59 2021, MaxMem=  1610612736 cpu:               0.1 elap:               0.0
 (Enter /usr/local/g16reva03/legacy_cpu/g16/l601.exe)
 Copying SCF densities to generalized density rwf, IOpCl= 0 IROHF=0.

 **********************************************************************

            Population analysis using the SCF density.

 **********************************************************************

 Orbital symmetries:
       Occupied  (AG) (BU) (AG) (BU) (BU) (AG) (AG) (AU)
       Virtual   (BG) (AG) (BU) (BU) (AG) (BU) (AG) (BU) (AU) (AG)
                 (BG) (BU) (BU) (AG) (AG) (BU) (BU) (AG) (AU) (BG)
                 (AU) (AG) (BU) (AG) (BU) (BG) (AG) (BU) (AG) (BU)
 The electronic state is 1-AG.
 Alpha  occ. eigenvalues --  -11.22437 -11.22257  -1.03310  -0.78943  -0.64071
 Alpha  occ. eigenvalues --   -0.58632  -0.50200  -0.37434
 Alpha virt. eigenvalues --    0.18388   0.26669   0.29311   0.31112   0.39299
 Alpha virt. eigenvalues --    0.49554   0.66185   0.76823   0.77267   0.85229
 Alpha virt. eigenvalues --    0.89372   0.96624   1.10995   1.16361   1.21183
 Alpha virt. eigenvalues --    1.22111   1.34399   1.48614   1.74781   1.81523
 Alpha virt. eigenvalues --    2.13732   2.20067   2.33954   2.41946   2.63922
 Alpha virt. eigenvalues --    2.73135   3.08396   3.08872   4.53163   4.67316
          Condensed to atoms (all electrons):
               1          2          3          4          5          6
     1  C    4.991412   0.397931   0.397931   0.645504  -0.040028  -0.039995
     2  H    0.397931   0.495305  -0.028857  -0.040028   0.003085  -0.003789
     3  H    0.397931  -0.028857   0.495228  -0.039995  -0.003789   0.003080
     4  C    0.645504  -0.040028  -0.039995   4.991412   0.397931   0.397931
     5  H   -0.040028   0.003085  -0.003789   0.397931   0.495305  -0.028857
     6  H   -0.039995  -0.003789   0.003080   0.397931  -0.028857   0.495228
 Mulliken charges:
               1
     1  C   -0.352754
     2  H    0.176352
     3  H    0.176401
     4  C   -0.352754
     5  H    0.176352
     6  H    0.176401
 Sum of Mulliken charges =   0.00000
 Mulliken charges with hydrogens summed into heavy atoms:
               1
     1  C    0.000000
     4  C    0.000000
 Electronic spatial extent (au):  <R**2>=             81.4288
 Charge=              0.0000 electrons
 Dipole moment (field-independent basis, Debye):
    X=              0.0000    Y=             -0.0000    Z=              0.0000  Tot=              0.0000
 Quadrupole moment (field-independent basis, Debye-Ang):
   XX=            -12.2346   YY=            -11.9869   ZZ=            -15.3768
   XY=             -0.0010   XZ=              0.0000   YZ=             -0.0000
 Traceless Quadrupole moment (field-independent basis, Debye-Ang):
   XX=              0.9648   YY=              1.2126   ZZ=             -2.1774
   XY=             -0.0010   XZ=              0.0000   YZ=             -0.0000
 Octapole moment (field-independent basis, Debye-Ang**2):
  XXX=              0.0000  YYY=             -0.0000  ZZZ=             -0.0000  XYY=             -0.0000
  XXY=             -0.0000  XXZ=             -0.0000  XZZ=             -0.0000  YZZ=             -0.0000
  YYZ=              0.0000  XYZ=             -0.0000
 Hexadecapole moment (field-independent basis, Debye-Ang**3):
 XXXX=            -25.5760 YYYY=            -65.1763 ZZZZ=            -16.4437 XXXY=             -0.0002
 XXXZ=              0.0000 YYYX=             -0.0043 YYYZ=             -0.0000 ZZZX=              0.0000
 ZZZY=             -0.0000 XXYY=            -12.7836 XXZZ=             -7.6144 YYZZ=            -14.5456
 XXYZ=             -0.0000 YYXZ=              0.0000 ZZXY=             -0.0001
 N-N= 3.368537988371D+01 E-N=-2.486694907944D+02  KE= 7.798098091539D+01
 Symmetry AG   KE= 3.966135868071D+01
 Symmetry BG   KE= 4.621876985429D-34
 Symmetry AU   KE= 1.953825170753D+00
 Symmetry BU   KE= 3.636579706393D+01
 No NMR shielding tensors so no spin-rotation constants.
 Leave Link  601 at Tue Dec 14 13:24:00 2021, MaxMem=  1610612736 cpu:               1.3 elap:               0.2
 (Enter /usr/local/g16reva03/legacy_cpu/g16/l9999.exe)
 B after Tr=    -0.000373    0.000000    0.000640
         Rot=    1.000000    0.000000    0.000289    0.000000 Ang=   0.03 deg.
 Final structure in terms of initial Z-matrix:
 C
 H,1,B1
 H,1,B2,2,A1
 C,1,B3,3,A2,2,D1,0
 H,4,B4,1,A3,3,D2,0
 H,4,B5,1,A4,3,D3,0
      Variables:
 B1=1.07619677
 B2=1.07619837
 B3=1.31710361
 B4=1.07619677
 B5=1.07619837
 A1=116.43271152
 A2=121.79654617
 A3=121.77074231
 A4=121.79654617
 D1=180.
 D2=0.
 D3=180.

 Test job not archived.
 1\1\GINC-NODE137\FOpt\RHF\6-31G(d)\C2H4\ROOT\14-Dec-2021\0\\#P rhf/6-3
 1g(d) test opt\\Etheylene Optimization\\0,1\C,-0.0158331369,0.,-0.0106
 647885\H,0.0151928344,0.,1.0650846566\H,0.9336453686,0.,-0.5173140811\
 C,-1.1551113462,0.,-0.671578612\H,-1.1861373174,0.,-1.7473280572\H,-2.
 1045898517,0.,-0.1649293195\\Version=EM64L-G16RevA.03\State=1-AG\HF=-7
 8.0317178\RMSD=4.833e-09\RMSF=1.122e-04\Dipole=0.,0.,0.\Quadrupole=0.8
 557537,-1.6188163,0.7630626,0.,0.0796031,0.\PG=C02H [SGH(C2H4)]\\@


 HERE WE GO......
 SLIDING DOWN THE RAZOR BLADE OF LIFE......
                                 TOM LEHRER
 Job cpu time:       0 days  0 hours  0 minutes 54.1 seconds.
 Elapsed time:       0 days  0 hours  0 minutes  8.4 seconds.
 File lengths (MBytes):  RWF=     72 Int=      0 D2E=      0 Chk=      8 Scr=      8
 Normal termination of Gaussian 16 at Tue Dec 14 13:24:00 2021.
