************************************************************
This is node137 of the Cardinal research cluster.
Date: Tue Dec 14 13:38:46 EST 2021
************************************************************
 Set GAUSS_MDEF to "12GB".
 Set GAUSS_PDEF to "8".
 Entering Gaussian System, Link 0=g16
 Initial command:
 /usr/local/g16reva03/legacy_cpu/g16/l1.exe "/scratch/global/amkiny01/Gau-21246.inp" -scrdir="/scratch/global/amkiny01/"
 Default is to use a total of   8 processors:
                                8 via shared-memory
                                1 via Linda
 Entering Link 1 = /usr/local/g16reva03/legacy_cpu/g16/l1.exe PID=     21247.
  
 Copyright (c) 1988,1990,1992,1993,1995,1998,2003,2009,2016,
            Gaussian, Inc.  All Rights Reserved.
  
 This is part of the Gaussian(R) 16 program.  It is based on
 the Gaussian(R) 09 system (copyright 2009, Gaussian, Inc.),
 the Gaussian(R) 03 system (copyright 2003, Gaussian, Inc.),
 the Gaussian(R) 98 system (copyright 1998, Gaussian, Inc.),
 the Gaussian(R) 94 system (copyright 1995, Gaussian, Inc.),
 the Gaussian 92(TM) system (copyright 1992, Gaussian, Inc.),
 the Gaussian 90(TM) system (copyright 1990, Gaussian, Inc.),
 the Gaussian 88(TM) system (copyright 1988, Gaussian, Inc.),
 the Gaussian 86(TM) system (copyright 1986, Carnegie Mellon
 University), and the Gaussian 82(TM) system (copyright 1983,
 Carnegie Mellon University). Gaussian is a federally registered
 trademark of Gaussian, Inc.
  
 This software contains proprietary and confidential information,
 including trade secrets, belonging to Gaussian, Inc.
  
 This software is provided under written license and may be
 used, copied, transmitted, or stored only in accord with that
 written license.
  
 The following legend is applicable only to US Government
 contracts under FAR:
  
                    RESTRICTED RIGHTS LEGEND
  
 Use, reproduction and disclosure by the US Government is
 subject to restrictions as set forth in subparagraphs (a)
 and (c) of the Commercial Computer Software - Restricted
 Rights clause in FAR 52.227-19.
  
 Gaussian, Inc.
 340 Quinnipiac St., Bldg. 40, Wallingford CT 06492
  
  
 ---------------------------------------------------------------
 Warning -- This program may not be used in any manner that
 competes with the business of Gaussian, Inc. or will provide
 assistance to any competitor of Gaussian, Inc.  The licensee
 of this program is prohibited from giving any competitor of
 Gaussian, Inc. access to this program.  By using this program,
 the user acknowledges that Gaussian, Inc. is engaged in the
 business of creating and licensing software in the field of
 computational chemistry and represents and warrants to the
 licensee that it is not a competitor of Gaussian, Inc. and that
 it will not use this program in any manner prohibited above.
 ---------------------------------------------------------------
  

 Cite this work as:
 Gaussian 16, Revision A.03,
 M. J. Frisch, G. W. Trucks, H. B. Schlegel, G. E. Scuseria, 
 M. A. Robb, J. R. Cheeseman, G. Scalmani, V. Barone, 
 G. A. Petersson, H. Nakatsuji, X. Li, M. Caricato, A. V. Marenich, 
 J. Bloino, B. G. Janesko, R. Gomperts, B. Mennucci, H. P. Hratchian, 
 J. V. Ortiz, A. F. Izmaylov, J. L. Sonnenberg, D. Williams-Young, 
 F. Ding, F. Lipparini, F. Egidi, J. Goings, B. Peng, A. Petrone, 
 T. Henderson, D. Ranasinghe, V. G. Zakrzewski, J. Gao, N. Rega, 
 G. Zheng, W. Liang, M. Hada, M. Ehara, K. Toyota, R. Fukuda, 
 J. Hasegawa, M. Ishida, T. Nakajima, Y. Honda, O. Kitao, H. Nakai, 
 T. Vreven, K. Throssell, J. A. Montgomery, Jr., J. E. Peralta, 
 F. Ogliaro, M. J. Bearpark, J. J. Heyd, E. N. Brothers, K. N. Kudin, 
 V. N. Staroverov, T. A. Keith, R. Kobayashi, J. Normand, 
 K. Raghavachari, A. P. Rendell, J. C. Burant, S. S. Iyengar, 
 J. Tomasi, M. Cossi, J. M. Millam, M. Klene, C. Adamo, R. Cammi, 
 J. W. Ochterski, R. L. Martin, K. Morokuma, O. Farkas, 
 J. B. Foresman, and D. J. Fox, Gaussian, Inc., Wallingford CT, 2016.
 
 ******************************************
 Gaussian 16:  EM64L-G16RevA.03 25-Dec-2016
                14-Dec-2021 
 ******************************************
 %chk=ethylene_opt_singlet.chk
 ------------------------
 #P rhf/6-31g(d) test opt
 ------------------------
 1/18=20,19=15,38=1/1,3;
 2/9=110,12=2,17=6,18=5,40=1/2;
 3/5=1,6=6,7=1,11=1,25=1,30=1,71=1,116=1/1,2,3;
 4//1;
 5/5=2,38=5/2;
 6/7=2,8=2,9=2,10=2,28=1/1;
 7//1,2,3,16;
 1/18=20,19=15/3(2);
 2/9=110/2;
 99//99;
 2/9=110/2;
 3/5=1,6=6,7=1,11=1,25=1,30=1,71=1,116=1/1,2,3;
 4/5=5,16=3,69=1/1;
 5/5=2,38=5/2;
 7//1,2,3,16;
 1/18=20,19=15/3(-5);
 2/9=110/2;
 6/7=2,8=2,9=2,10=2,19=2,28=1/1;
 99/9=1/99;
 Leave Link    1 at Tue Dec 14 13:38:46 2021, MaxMem=           0 cpu:               2.4 elap:               0.4
 (Enter /usr/local/g16reva03/legacy_cpu/g16/l101.exe)
 --------------------------------------------------------------
 Etheylene Optimization using parameters in gaussian book pg 42
 --------------------------------------------------------------
 Symbolic Z-matrix:
 Charge =  0 Multiplicity = 1
 C
 C                    1    CC
 H                    1    CH       2    HCC
 H                    1    CH       2    HCC      3     180.     0
 H                    2    CH       1    HCC      3     180.     0
 H                    2    CH       1    HCC      4     180.     0
       Variables:
       Constants:
  CC                    1.31                     
  CH                    1.07                     
  HCC                 121.5                      
 
 ITRead=  0  0  0  0  0  0
 MicOpt= -1 -1 -1 -1 -1 -1
 NAtoms=      6 NQM=        6 NQMF=       0 NMMI=      0 NMMIF=      0
                NMic=       0 NMicF=      0.
                    Isotopes and Nuclear Properties:
 (Nuclear quadrupole moments (NQMom) in fm**2, nuclear magnetic moments (NMagM)
  in nuclear magnetons)

  Atom         1           2           3           4           5           6
 IAtWgt=          12          12           1           1           1           1
 AtmWgt=  12.0000000  12.0000000   1.0078250   1.0078250   1.0078250   1.0078250
 NucSpn=           0           0           1           1           1           1
 AtZEff=  -0.0000000  -0.0000000  -0.0000000  -0.0000000  -0.0000000  -0.0000000
 NQMom=    0.0000000   0.0000000   0.0000000   0.0000000   0.0000000   0.0000000
 NMagM=    0.0000000   0.0000000   2.7928460   2.7928460   2.7928460   2.7928460
 AtZNuc=   6.0000000   6.0000000   1.0000000   1.0000000   1.0000000   1.0000000
 Leave Link  101 at Tue Dec 14 13:38:47 2021, MaxMem=  1610612736 cpu:               4.0 elap:               0.5
 (Enter /usr/local/g16reva03/legacy_cpu/g16/l103.exe)

 GradGradGradGradGradGradGradGradGradGradGradGradGradGradGradGradGradGrad
 Berny optimization.
 Initialization pass.
                           ----------------------------
                           !    Initial Parameters    !
                           ! (Angstroms and Degrees)  !
 --------------------------                            --------------------------
 ! Name  Definition              Value          Derivative Info.                !
 --------------------------------------------------------------------------------
 ! R1    R(1,2)                  1.31           estimate D2E/DX2                !
 ! R2    R(1,3)                  1.07           estimate D2E/DX2                !
 ! R3    R(1,4)                  1.07           estimate D2E/DX2                !
 ! R4    R(2,5)                  1.07           estimate D2E/DX2                !
 ! R5    R(2,6)                  1.07           estimate D2E/DX2                !
 ! A1    A(2,1,3)              121.5            estimate D2E/DX2                !
 ! A2    A(2,1,4)              121.5            estimate D2E/DX2                !
 ! A3    A(3,1,4)              117.0            estimate D2E/DX2                !
 ! A4    A(1,2,5)              121.5            estimate D2E/DX2                !
 ! A5    A(1,2,6)              121.5            estimate D2E/DX2                !
 ! A6    A(5,2,6)              117.0            estimate D2E/DX2                !
 ! D1    D(3,1,2,5)            180.0            estimate D2E/DX2                !
 ! D2    D(3,1,2,6)              0.0            estimate D2E/DX2                !
 ! D3    D(4,1,2,5)              0.0            estimate D2E/DX2                !
 ! D4    D(4,1,2,6)            180.0            estimate D2E/DX2                !
 --------------------------------------------------------------------------------
 Trust Radius=3.00D-01 FncErr=1.00D-07 GrdErr=1.00D-07 EigMax=2.50D+02 EigMin=1.00D-04
 Number of steps in this run=     25 maximum allowed number of steps=    100.
 GradGradGradGradGradGradGradGradGradGradGradGradGradGradGradGradGradGrad

 Leave Link  103 at Tue Dec 14 13:38:47 2021, MaxMem=  1610612736 cpu:               0.1 elap:               0.1
 (Enter /usr/local/g16reva03/legacy_cpu/g16/l202.exe)
                          Input orientation:                          
 ---------------------------------------------------------------------
 Center     Atomic      Atomic             Coordinates (Angstroms)
 Number     Number       Type             X           Y           Z
 ---------------------------------------------------------------------
      1          6           0        0.000000    0.000000    0.000000
      2          6           0        0.000000    0.000000    1.310000
      3          1           0        0.912325    0.000000   -0.559073
      4          1           0       -0.912325    0.000000   -0.559073
      5          1           0       -0.912325    0.000000    1.869073
      6          1           0        0.912325    0.000000    1.869073
 ---------------------------------------------------------------------
                    Distance matrix (angstroms):
                    1          2          3          4          5
     1  C    0.000000
     2  C    1.310000   0.000000
     3  H    1.070000   2.079849   0.000000
     4  H    1.070000   2.079849   1.824650   0.000000
     5  H    2.079849   1.070000   3.037309   2.428147   0.000000
     6  H    2.079849   1.070000   2.428147   3.037309   1.824650
                    6
     6  H    0.000000
 Stoichiometry    C2H4
 Framework group  D2H[C2"(C.C),SG(H4)]
 Deg. of freedom     3
 Full point group                 D2H     NOp   8
 Largest Abelian subgroup         D2H     NOp   8
 Largest concise Abelian subgroup D2      NOp   4
                         Standard orientation:                         
 ---------------------------------------------------------------------
 Center     Atomic      Atomic             Coordinates (Angstroms)
 Number     Number       Type             X           Y           Z
 ---------------------------------------------------------------------
      1          6           0       -0.000000    0.000000    0.655000
      2          6           0        0.000000    0.000000   -0.655000
      3          1           0        0.000000    0.912325    1.214073
      4          1           0       -0.000000   -0.912325    1.214073
      5          1           0       -0.000000   -0.912325   -1.214073
      6          1           0        0.000000    0.912325   -1.214073
 ---------------------------------------------------------------------
 Rotational constants (GHZ):         150.6166336          31.1220166          25.7924958
 Leave Link  202 at Tue Dec 14 13:38:47 2021, MaxMem=  1610612736 cpu:               0.4 elap:               0.1
 (Enter /usr/local/g16reva03/legacy_cpu/g16/l301.exe)
 Standard basis: 6-31G(d) (6D, 7F)
 Ernie: Thresh=  0.10000D-02 Tol=  0.10000D-05 Strict=F.
 There are    10 symmetry adapted cartesian basis functions of AG  symmetry.
 There are     1 symmetry adapted cartesian basis functions of B1G symmetry.
 There are     3 symmetry adapted cartesian basis functions of B2G symmetry.
 There are     5 symmetry adapted cartesian basis functions of B3G symmetry.
 There are     1 symmetry adapted cartesian basis functions of AU  symmetry.
 There are    10 symmetry adapted cartesian basis functions of B1U symmetry.
 There are     5 symmetry adapted cartesian basis functions of B2U symmetry.
 There are     3 symmetry adapted cartesian basis functions of B3U symmetry.
 There are    10 symmetry adapted basis functions of AG  symmetry.
 There are     1 symmetry adapted basis functions of B1G symmetry.
 There are     3 symmetry adapted basis functions of B2G symmetry.
 There are     5 symmetry adapted basis functions of B3G symmetry.
 There are     1 symmetry adapted basis functions of AU  symmetry.
 There are    10 symmetry adapted basis functions of B1U symmetry.
 There are     5 symmetry adapted basis functions of B2U symmetry.
 There are     3 symmetry adapted basis functions of B3U symmetry.
    38 basis functions,    72 primitive gaussians,    38 cartesian basis functions
     8 alpha electrons        8 beta electrons
       nuclear repulsion energy        33.8823556815 Hartrees.
 IExCor=    0 DFT=F Ex=HF Corr=None ExCW=0 ScaHFX=  1.000000
 ScaDFX=  1.000000  1.000000  1.000000  1.000000 ScalE2=  1.000000  1.000000
 IRadAn=      5 IRanWt=     -1 IRanGd=            0 ICorTp=0 IEmpDi=  4
 NAtoms=    6 NActive=    6 NUniq=    2 SFac= 4.00D+00 NAtFMM=   60 NAOKFM=F Big=F
 Integral buffers will be    131072 words long.
 Raffenetti 1 integral format.
 Two-electron integral symmetry is turned on.
 Leave Link  301 at Tue Dec 14 13:38:47 2021, MaxMem=  1610612736 cpu:               0.9 elap:               0.1
 (Enter /usr/local/g16reva03/legacy_cpu/g16/l302.exe)
 NPDir=0 NMtPBC=     1 NCelOv=     1 NCel=       1 NClECP=     1 NCelD=      1
         NCelK=      1 NCelE2=     1 NClLst=     1 CellRange=     0.0.
 One-electron integrals computed using PRISM.
 One-electron integral symmetry used in STVInt
 NBasis=    38 RedAO= T EigKep=  7.04D-03  NBF=    10     1     3     5     1    10     5     3
 NBsUse=    38 1.00D-06 EigRej= -1.00D+00 NBFU=    10     1     3     5     1    10     5     3
 Leave Link  302 at Tue Dec 14 13:38:47 2021, MaxMem=  1610612736 cpu:               1.4 elap:               0.2
 (Enter /usr/local/g16reva03/legacy_cpu/g16/l303.exe)
 DipDrv:  MaxL=1.
 Leave Link  303 at Tue Dec 14 13:38:47 2021, MaxMem=  1610612736 cpu:               0.4 elap:               0.1
 (Enter /usr/local/g16reva03/legacy_cpu/g16/l401.exe)
 ExpMin= 1.61D-01 ExpMax= 3.05D+03 ExpMxC= 4.57D+02 IAcc=3 IRadAn=         5 AccDes= 0.00D+00
 Harris functional with IExCor=  205 and IRadAn=       5 diagonalized for initial guess.
 HarFok:  IExCor=  205 AccDes= 0.00D+00 IRadAn=         5 IDoV= 1 UseB2=F ITyADJ=14
 ICtDFT=  3500011 ScaDFX=  1.000000  1.000000  1.000000  1.000000
 FoFCou: FMM=F IPFlag=           0 FMFlag=      100000 FMFlg1=           0
         NFxFlg=           0 DoJE=T BraDBF=F KetDBF=T FulRan=T
         wScrn=  0.000000 ICntrl=       500 IOpCl=  0 I1Cent=   200000004 NGrid=           0
         NMat0=    1 NMatS0=      1 NMatT0=    0 NMatD0=    1 NMtDS0=    0 NMtDT0=    0
 Petite list used in FoFCou.
 Harris En= -78.2280921586470    
 JPrj=0 DoOrth=F DoCkMO=F.
 Initial guess orbital symmetries:
       Occupied  (AG) (B1U) (AG) (B1U) (B2U) (AG) (B3G) (B3U)
       Virtual   (B2G) (B2U) (AG) (B1U) (B3G) (B1U) (AG) (B3U)
                 (B2U) (B2G) (AG) (B1U) (B2U) (B3G) (B1U) (AG)
                 (B1U) (B3G) (B3U) (B1G) (AU) (AG) (B2U) (AG) (B1U)
                 (B2G) (B1U) (B3G) (AG) (B1U)
 The electronic state of the initial guess is 1-AG.
 Leave Link  401 at Tue Dec 14 13:38:48 2021, MaxMem=  1610612736 cpu:               2.1 elap:               0.3
 (Enter /usr/local/g16reva03/legacy_cpu/g16/l502.exe)
 Keep R1 ints in memory in symmetry-blocked form, NReq=1937873.
 FoFCou: FMM=F IPFlag=           0 FMFlag=           0 FMFlg1=           0
         NFxFlg=           0 DoJE=F BraDBF=F KetDBF=F FulRan=T
         wScrn=  0.000000 ICntrl=       600 IOpCl=  0 I1Cent=           0 NGrid=           0
         NMat0=    1 NMatS0=    741 NMatT0=    0 NMatD0=    1 NMtDS0=    0 NMtDT0=    0
 Petite list used in FoFCou.
 Closed shell SCF:
 Using DIIS extrapolation, IDIIS=  1040.
 NGot=  1610612736 LenX=  1610564887 LenY=  1610563002
 Requested convergence on RMS density matrix=1.00D-08 within 128 cycles.
 Requested convergence on MAX density matrix=1.00D-06.
 Requested convergence on             energy=1.00D-06.
 No special actions if energy rises.

 Cycle   1  Pass 1  IDiag  1:
 E= -77.8857997209215    
 DIIS: error= 7.68D-02 at cycle   1 NSaved=   1.
 NSaved= 1 IEnMin= 1 EnMin= -77.8857997209215     IErMin= 1 ErrMin= 7.68D-02
 ErrMax= 7.68D-02  0.00D+00 EMaxC= 1.00D-01 BMatC= 1.73D-01 BMatP= 1.73D-01
 IDIUse=3 WtCom= 2.32D-01 WtEn= 7.68D-01
 Coeff-Com:  0.100D+01
 Coeff-En:   0.100D+01
 Coeff:      0.100D+01
 Gap=     0.545 Goal=   None    Shift=    0.000
 GapD=    0.545 DampG=2.000 DampE=0.500 DampFc=1.0000 IDamp=-1.
 RMSDP=1.07D-02 MaxDP=1.13D-01              OVMax= 1.41D-01

 Cycle   2  Pass 1  IDiag  1:
 E= -78.0139236961920     Delta-E=       -0.128123975270 Rises=F Damp=F
 DIIS: error= 2.11D-02 at cycle   2 NSaved=   2.
 NSaved= 2 IEnMin= 2 EnMin= -78.0139236961920     IErMin= 2 ErrMin= 2.11D-02
 ErrMax= 2.11D-02  0.00D+00 EMaxC= 1.00D-01 BMatC= 1.94D-02 BMatP= 1.73D-01
 IDIUse=3 WtCom= 7.89D-01 WtEn= 2.11D-01
 Coeff-Com:  0.197D+00 0.803D+00
 Coeff-En:   0.000D+00 0.100D+01
 Coeff:      0.155D+00 0.845D+00
 Gap=     0.572 Goal=   None    Shift=    0.000
 RMSDP=3.34D-03 MaxDP=2.78D-02 DE=-1.28D-01 OVMax= 3.96D-02

 Cycle   3  Pass 1  IDiag  1:
 E= -78.0309746732349     Delta-E=       -0.017050977043 Rises=F Damp=F
 DIIS: error= 4.50D-03 at cycle   3 NSaved=   3.
 NSaved= 3 IEnMin= 3 EnMin= -78.0309746732349     IErMin= 3 ErrMin= 4.50D-03
 ErrMax= 4.50D-03  0.00D+00 EMaxC= 1.00D-01 BMatC= 4.75D-04 BMatP= 1.94D-02
 IDIUse=3 WtCom= 9.55D-01 WtEn= 4.50D-02
 Coeff-Com: -0.238D-01 0.871D-01 0.937D+00
 Coeff-En:   0.000D+00 0.000D+00 0.100D+01
 Coeff:     -0.228D-01 0.832D-01 0.940D+00
 Gap=     0.562 Goal=   None    Shift=    0.000
 RMSDP=4.64D-04 MaxDP=5.37D-03 DE=-1.71D-02 OVMax= 8.30D-03

 Cycle   4  Pass 1  IDiag  1:
 E= -78.0315077127933     Delta-E=       -0.000533039558 Rises=F Damp=F
 DIIS: error= 4.35D-04 at cycle   4 NSaved=   4.
 NSaved= 4 IEnMin= 4 EnMin= -78.0315077127933     IErMin= 4 ErrMin= 4.35D-04
 ErrMax= 4.35D-04  0.00D+00 EMaxC= 1.00D-01 BMatC= 3.71D-06 BMatP= 4.75D-04
 IDIUse=3 WtCom= 9.96D-01 WtEn= 4.35D-03
 Coeff-Com:  0.466D-02-0.277D-01-0.207D+00 0.123D+01
 Coeff-En:   0.000D+00 0.000D+00 0.000D+00 0.100D+01
 Coeff:      0.463D-02-0.276D-01-0.206D+00 0.123D+01
 Gap=     0.562 Goal=   None    Shift=    0.000
 RMSDP=8.75D-05 MaxDP=5.31D-04 DE=-5.33D-04 OVMax= 1.04D-03

 Cycle   5  Pass 1  IDiag  1:
 E= -78.0315143921009     Delta-E=       -0.000006679308 Rises=F Damp=F
 DIIS: error= 6.44D-05 at cycle   5 NSaved=   5.
 NSaved= 5 IEnMin= 5 EnMin= -78.0315143921009     IErMin= 5 ErrMin= 6.44D-05
 ErrMax= 6.44D-05  0.00D+00 EMaxC= 1.00D-01 BMatC= 7.26D-08 BMatP= 3.71D-06
 IDIUse=1 WtCom= 1.00D+00 WtEn= 0.00D+00
 Coeff-Com:  0.627D-04 0.250D-03-0.133D-02-0.142D+00 0.114D+01
 Coeff:      0.627D-04 0.250D-03-0.133D-02-0.142D+00 0.114D+01
 Gap=     0.562 Goal=   None    Shift=    0.000
 RMSDP=1.70D-05 MaxDP=1.17D-04 DE=-6.68D-06 OVMax= 2.05D-04

 Cycle   6  Pass 1  IDiag  1:
 E= -78.0315145573987     Delta-E=       -0.000000165298 Rises=F Damp=F
 DIIS: error= 7.68D-06 at cycle   6 NSaved=   6.
 NSaved= 6 IEnMin= 6 EnMin= -78.0315145573987     IErMin= 6 ErrMin= 7.68D-06
 ErrMax= 7.68D-06  0.00D+00 EMaxC= 1.00D-01 BMatC= 1.24D-09 BMatP= 7.26D-08
 IDIUse=1 WtCom= 1.00D+00 WtEn= 0.00D+00
 Coeff-Com: -0.915D-04 0.472D-03 0.412D-02 0.926D-02-0.261D+00 0.125D+01
 Coeff:     -0.915D-04 0.472D-03 0.412D-02 0.926D-02-0.261D+00 0.125D+01
 Gap=     0.562 Goal=   None    Shift=    0.000
 RMSDP=2.69D-06 MaxDP=2.12D-05 DE=-1.65D-07 OVMax= 2.30D-05

 Cycle   7  Pass 1  IDiag  1:
 E= -78.0315145600418     Delta-E=       -0.000000002643 Rises=F Damp=F
 DIIS: error= 8.53D-07 at cycle   7 NSaved=   7.
 NSaved= 7 IEnMin= 7 EnMin= -78.0315145600418     IErMin= 7 ErrMin= 8.53D-07
 ErrMax= 8.53D-07  0.00D+00 EMaxC= 1.00D-01 BMatC= 1.10D-11 BMatP= 1.24D-09
 IDIUse=1 WtCom= 1.00D+00 WtEn= 0.00D+00
 Coeff-Com:  0.223D-04-0.121D-03-0.104D-02-0.816D-03 0.547D-01-0.310D+00
 Coeff-Com:  0.126D+01
 Coeff:      0.223D-04-0.121D-03-0.104D-02-0.816D-03 0.547D-01-0.310D+00
 Coeff:      0.126D+01
 Gap=     0.562 Goal=   None    Shift=    0.000
 RMSDP=1.94D-07 MaxDP=1.53D-06 DE=-2.64D-09 OVMax= 2.58D-06

 Cycle   8  Pass 1  IDiag  1:
 E= -78.0315145600673     Delta-E=       -0.000000000025 Rises=F Damp=F
 DIIS: error= 8.80D-08 at cycle   8 NSaved=   8.
 NSaved= 8 IEnMin= 8 EnMin= -78.0315145600673     IErMin= 8 ErrMin= 8.80D-08
 ErrMax= 8.80D-08  0.00D+00 EMaxC= 1.00D-01 BMatC= 2.00D-13 BMatP= 1.10D-11
 IDIUse=1 WtCom= 1.00D+00 WtEn= 0.00D+00
 Coeff-Com: -0.410D-05 0.221D-04 0.190D-03-0.356D-04-0.838D-02 0.520D-01
 Coeff-Com: -0.300D+00 0.126D+01
 Coeff:     -0.410D-05 0.221D-04 0.190D-03-0.356D-04-0.838D-02 0.520D-01
 Coeff:     -0.300D+00 0.126D+01
 Gap=     0.562 Goal=   None    Shift=    0.000
 RMSDP=2.68D-08 MaxDP=1.99D-07 DE=-2.54D-11 OVMax= 3.13D-07

 Cycle   9  Pass 1  IDiag  1:
 E= -78.0315145600679     Delta-E=       -0.000000000001 Rises=F Damp=F
 DIIS: error= 1.08D-08 at cycle   9 NSaved=   9.
 NSaved= 9 IEnMin= 9 EnMin= -78.0315145600679     IErMin= 9 ErrMin= 1.08D-08
 ErrMax= 1.08D-08  0.00D+00 EMaxC= 1.00D-01 BMatC= 2.11D-15 BMatP= 2.00D-13
 IDIUse=1 WtCom= 1.00D+00 WtEn= 0.00D+00
 Coeff-Com:  0.573D-06-0.299D-05-0.268D-04-0.206D-05 0.126D-02-0.779D-02
 Coeff-Com:  0.503D-01-0.274D+00 0.123D+01
 Coeff:      0.573D-06-0.299D-05-0.268D-04-0.206D-05 0.126D-02-0.779D-02
 Coeff:      0.503D-01-0.274D+00 0.123D+01
 Gap=     0.562 Goal=   None    Shift=    0.000
 RMSDP=2.20D-09 MaxDP=1.35D-08 DE=-5.68D-13 OVMax= 2.80D-08

 SCF Done:  E(RHF) =  -78.0315145601     A.U. after    9 cycles
            NFock=  9  Conv=0.22D-08     -V/T= 1.9998
 KE= 7.804383397836D+01 PE=-2.491157861730D+02 EE= 5.915808195313D+01
 Leave Link  502 at Tue Dec 14 13:38:48 2021, MaxMem=  1610612736 cpu:               2.0 elap:               0.3
 (Enter /usr/local/g16reva03/legacy_cpu/g16/l601.exe)
 Copying SCF densities to generalized density rwf, IOpCl= 0 IROHF=0.

 **********************************************************************

            Population analysis using the SCF density.

 **********************************************************************

 Orbital symmetries:
       Occupied  (AG) (B1U) (AG) (B1U) (B2U) (AG) (B3G) (B3U)
       Virtual   (B2G) (AG) (B2U) (B1U) (B3G) (B1U) (AG) (B2U)
                 (B3U) (AG) (B2G) (B1U) (B2U) (B3G) (AG) (B1U)
                 (B1U) (B3G) (B3U) (B1G) (AU) (AG) (B2U) (AG) (B1U)
                 (B2G) (B3G) (B1U) (AG) (B1U)
 The electronic state is 1-AG.
 Alpha  occ. eigenvalues --  -11.22134 -11.21947  -1.03633  -0.79020  -0.64464
 Alpha  occ. eigenvalues --   -0.58677  -0.50340  -0.37575
 Alpha virt. eigenvalues --    0.18586   0.26741   0.29486   0.31411   0.39387
 Alpha virt. eigenvalues --    0.49615   0.65878   0.77082   0.77163   0.85103
 Alpha virt. eigenvalues --    0.89554   0.97283   1.11282   1.16829   1.21714
 Alpha virt. eigenvalues --    1.22643   1.34882   1.50064   1.75129   1.81223
 Alpha virt. eigenvalues --    2.13960   2.20518   2.34970   2.42887   2.65590
 Alpha virt. eigenvalues --    2.73956   3.09167   3.09864   4.53736   4.67607
          Condensed to atoms (all electrons):
               1          2          3          4          5          6
     1  C    4.987441   0.648343   0.399219   0.399219  -0.040799  -0.040799
     2  C    0.648343   4.987441  -0.040799  -0.040799   0.399219   0.399219
     3  H    0.399219  -0.040799   0.494556  -0.028507   0.003229  -0.004010
     4  H    0.399219  -0.040799  -0.028507   0.494556  -0.004010   0.003229
     5  H   -0.040799   0.399219   0.003229  -0.004010   0.494556  -0.028507
     6  H   -0.040799   0.399219  -0.004010   0.003229  -0.028507   0.494556
 Mulliken charges:
               1
     1  C   -0.352624
     2  C   -0.352624
     3  H    0.176312
     4  H    0.176312
     5  H    0.176312
     6  H    0.176312
 Sum of Mulliken charges =   0.00000
 Mulliken charges with hydrogens summed into heavy atoms:
               1
     1  C    0.000000
     2  C    0.000000
 Electronic spatial extent (au):  <R**2>=             80.7260
 Charge=              0.0000 electrons
 Dipole moment (field-independent basis, Debye):
    X=             -0.0000    Y=             -0.0000    Z=              0.0000  Tot=              0.0000
 Quadrupole moment (field-independent basis, Debye-Ang):
   XX=            -15.3217   YY=            -12.1923   ZZ=            -12.0260
   XY=              0.0000   XZ=             -0.0000   YZ=              0.0000
 Traceless Quadrupole moment (field-independent basis, Debye-Ang):
   XX=             -2.1417   YY=              0.9877   ZZ=              1.1540
   XY=              0.0000   XZ=             -0.0000   YZ=              0.0000
 Octapole moment (field-independent basis, Debye-Ang**2):
  XXX=             -0.0000  YYY=             -0.0000  ZZZ=              0.0000  XYY=             -0.0000
  XXY=             -0.0000  XXZ=             -0.0000  XZZ=             -0.0000  YZZ=              0.0000
  YYZ=             -0.0000  XYZ=             -0.0000
 Hexadecapole moment (field-independent basis, Debye-Ang**3):
 XXXX=            -16.3486 YYYY=            -25.3509 ZZZZ=            -64.4468 XXXY=             -0.0000
 XXXZ=              0.0000 YYYX=             -0.0000 YYYZ=              0.0000 ZZZX=              0.0000
 ZZZY=              0.0000 XXYY=             -7.5547 XXZZ=            -14.3491 YYZZ=            -12.6941
 XXYZ=              0.0000 YYXZ=              0.0000 ZZXY=              0.0000
 N-N= 3.388235568147D+01 E-N=-2.491157861219D+02  KE= 7.804383397836D+01
 Symmetry AG   KE= 3.759310742045D+01
 Symmetry B1G  KE= 3.793746912622D-34
 Symmetry B2G  KE= 4.921828583133D-33
 Symmetry B3G  KE= 2.110463189360D+00
 Symmetry AU   KE= 4.457679527366D-34
 Symmetry B1U  KE= 3.451639469730D+01
 Symmetry B2U  KE= 1.866280526222D+00
 Symmetry B3U  KE= 1.957588145026D+00
 No NMR shielding tensors so no spin-rotation constants.
 Leave Link  601 at Tue Dec 14 13:38:48 2021, MaxMem=  1610612736 cpu:               1.3 elap:               0.2
 (Enter /usr/local/g16reva03/legacy_cpu/g16/l701.exe)
 ... and contract with generalized density number  0.
 Compute integral first derivatives.
 Leave Link  701 at Tue Dec 14 13:38:48 2021, MaxMem=  1610612736 cpu:               1.5 elap:               0.2
 (Enter /usr/local/g16reva03/legacy_cpu/g16/l702.exe)
 L702 exits ... SP integral derivatives will be done elsewhere.
 Leave Link  702 at Tue Dec 14 13:38:49 2021, MaxMem=  1610612736 cpu:               0.4 elap:               0.1
 (Enter /usr/local/g16reva03/legacy_cpu/g16/l703.exe)
 Integral derivatives from FoFJK, PRISM(SPDF).
 Compute integral first derivatives, UseDBF=F ICtDFT=           0.
 Calling FoFJK, ICntrl=      2127 FMM=F ISym2X=1 I1Cent= 0 IOpClX= 0 NMat=1 NMatS=1 NMatT=0.
 FoFJK:  IHMeth= 1 ICntrl=    2127 DoSepK=F KAlg= 0 I1Cent=           0 FoldK=F
 IRaf=         0 NMat=       1 IRICut=       1 DoRegI=T DoRafI=F ISym2E= 1 IDoP0=0 IntGTp=1.
 FoFCou: FMM=F IPFlag=           0 FMFlag=      100000 FMFlg1=         800
         NFxFlg=           0 DoJE=F BraDBF=F KetDBF=F FulRan=T
         wScrn=  0.000000 ICntrl=      2127 IOpCl=  0 I1Cent=           0 NGrid=           0
         NMat0=    1 NMatS0=      1 NMatT0=    0 NMatD0=    1 NMtDS0=    0 NMtDT0=    0
 Petite list used in FoFCou.
 Leave Link  703 at Tue Dec 14 13:38:49 2021, MaxMem=  1610612736 cpu:               2.3 elap:               0.3
 (Enter /usr/local/g16reva03/legacy_cpu/g16/l716.exe)
 Dipole        =-6.04170125D-17 0.00000000D+00 0.00000000D+00
 ***** Axes restored to original set *****
 -------------------------------------------------------------------
 Center     Atomic                   Forces (Hartrees/Bohr)
 Number     Number              X              Y              Z
 -------------------------------------------------------------------
      1        6           0.000000000    0.000000000   -0.004150937
      2        6           0.000000000   -0.000000000    0.004150937
      3        1           0.003337764   -0.000000000   -0.003460654
      4        1          -0.003337764    0.000000000   -0.003460654
      5        1          -0.003337764    0.000000000    0.003460654
      6        1           0.003337764   -0.000000000    0.003460654
 -------------------------------------------------------------------
 Cartesian Forces:  Max     0.004150937 RMS     0.002655474
 Leave Link  716 at Tue Dec 14 13:38:49 2021, MaxMem=  1610612736 cpu:               0.4 elap:               0.1
 (Enter /usr/local/g16reva03/legacy_cpu/g16/l103.exe)

 GradGradGradGradGradGradGradGradGradGradGradGradGradGradGradGradGradGrad
 Berny optimization.
 FormGI is forming the generalized inverse of G from B-inverse, IUseBI=4.
 Internal  Forces:  Max     0.011072245 RMS     0.003805042
 Search for a local minimum.
 Step number   1 out of a maximum of   25
 All quantities printed in internal units (Hartrees-Bohrs-Radians)
 RMS Force = .38050D-02 SwitMx=.10000D-02 MixMth= 1
 Mixed Optimization -- RFO/linear search
 Second derivative matrix not updated -- first step.
 The second derivative matrix:
                          R1        R2        R3        R4        R5
           R1           0.64491
           R2           0.00000   0.37230
           R3           0.00000   0.00000   0.37230
           R4           0.00000   0.00000   0.00000   0.37230
           R5           0.00000   0.00000   0.00000   0.00000   0.37230
           A1           0.00000   0.00000   0.00000   0.00000   0.00000
           A2           0.00000   0.00000   0.00000   0.00000   0.00000
           A3           0.00000   0.00000   0.00000   0.00000   0.00000
           A4           0.00000   0.00000   0.00000   0.00000   0.00000
           A5           0.00000   0.00000   0.00000   0.00000   0.00000
           A6           0.00000   0.00000   0.00000   0.00000   0.00000
           D1           0.00000   0.00000   0.00000   0.00000   0.00000
           D2           0.00000   0.00000   0.00000   0.00000   0.00000
           D3           0.00000   0.00000   0.00000   0.00000   0.00000
           D4           0.00000   0.00000   0.00000   0.00000   0.00000
                          A1        A2        A3        A4        A5
           A1           0.16000
           A2           0.00000   0.16000
           A3           0.00000   0.00000   0.16000
           A4           0.00000   0.00000   0.00000   0.16000
           A5           0.00000   0.00000   0.00000   0.00000   0.16000
           A6           0.00000   0.00000   0.00000   0.00000   0.00000
           D1           0.00000   0.00000   0.00000   0.00000   0.00000
           D2           0.00000   0.00000   0.00000   0.00000   0.00000
           D3           0.00000   0.00000   0.00000   0.00000   0.00000
           D4           0.00000   0.00000   0.00000   0.00000   0.00000
                          A6        D1        D2        D3        D4
           A6           0.16000
           D1           0.00000   0.03279
           D2           0.00000   0.00000   0.03279
           D3           0.00000   0.00000   0.00000   0.03279
           D4           0.00000   0.00000   0.00000   0.00000   0.03279
 ITU=  0
     Eigenvalues ---    0.03279   0.03279   0.03279   0.16000   0.16000
     Eigenvalues ---    0.16000   0.16000   0.37230   0.37230   0.37230
     Eigenvalues ---    0.37230   0.64491
 RFO step:  Lambda=-4.71850814D-04 EMin= 3.27928327D-02
 Linear search not attempted -- first point.
 Iteration  1 RMS(Cart)=  0.01299342 RMS(Int)=  0.00003088
 Iteration  2 RMS(Cart)=  0.00003533 RMS(Int)=  0.00000000
 Iteration  3 RMS(Cart)=  0.00000000 RMS(Int)=  0.00000000
 ITry= 1 IFail=0 DXMaxC= 2.39D-02 DCOld= 1.00D+10 DXMaxT= 3.00D-01 DXLimC= 3.00D+00 Rises=F
 ClnCor:  largest displacement from symmetrization is 2.56D-14 for atom     3.
 Variable       Old X    -DE/DX   Delta X   Delta X   Delta X     New X
                                 (Linear)    (Quad)   (Total)
    R1        2.47554   0.01107   0.00000   0.01716   0.01716   2.49270
    R2        2.02201   0.00465   0.00000   0.01249   0.01249   2.03449
    R3        2.02201   0.00465   0.00000   0.01249   0.01249   2.03449
    R4        2.02201   0.00465   0.00000   0.01249   0.01249   2.03449
    R5        2.02201   0.00465   0.00000   0.01249   0.01249   2.03449
    A1        2.12058   0.00081   0.00000   0.00507   0.00507   2.12564
    A2        2.12058   0.00081   0.00000   0.00507   0.00507   2.12564
    A3        2.04204  -0.00163   0.00000  -0.01014  -0.01014   2.03190
    A4        2.12058   0.00081   0.00000   0.00507   0.00507   2.12564
    A5        2.12058   0.00081   0.00000   0.00507   0.00507   2.12564
    A6        2.04204  -0.00163   0.00000  -0.01014  -0.01014   2.03190
    D1        3.14159  -0.00000   0.00000  -0.00000   0.00000   3.14159
    D2        0.00000   0.00000   0.00000   0.00000   0.00000   0.00000
    D3        0.00000  -0.00000   0.00000  -0.00000   0.00000   0.00000
    D4        3.14159   0.00000   0.00000   0.00000   0.00000   3.14159
         Item               Value     Threshold  Converged?
 Maximum Force            0.011072     0.000450     NO 
 RMS     Force            0.003805     0.000300     NO 
 Maximum Displacement     0.023880     0.001800     NO 
 RMS     Displacement     0.013007     0.001200     NO 
 Predicted change in Energy=-2.362150D-04
 Lowest energy point so far.  Saving SCF results.
 GradGradGradGradGradGradGradGradGradGradGradGradGradGradGradGradGradGrad

 Leave Link  103 at Tue Dec 14 13:38:49 2021, MaxMem=  1610612736 cpu:               0.2 elap:               0.1
 (Enter /usr/local/g16reva03/legacy_cpu/g16/l202.exe)
                          Input orientation:                          
 ---------------------------------------------------------------------
 Center     Atomic      Atomic             Coordinates (Angstroms)
 Number     Number       Type             X           Y           Z
 ---------------------------------------------------------------------
      1          6           0        0.000000   -0.000000   -0.004539
      2          6           0       -0.000000    0.000000    1.314539
      3          1           0        0.915095   -0.000000   -0.571710
      4          1           0       -0.915095   -0.000000   -0.571710
      5          1           0       -0.915095    0.000000    1.881710
      6          1           0        0.915095    0.000000    1.881710
 ---------------------------------------------------------------------
                    Distance matrix (angstroms):
                    1          2          3          4          5
     1  C    0.000000
     2  C    1.319079   0.000000
     3  H    1.076607   2.096506   0.000000
     4  H    1.076607   2.096506   1.830191   0.000000
     5  H    2.096506   1.076607   3.060861   2.453420   0.000000
     6  H    2.096506   1.076607   2.453420   3.060861   1.830191
                    6
     6  H    0.000000
 Stoichiometry    C2H4
 Framework group  D2H[C2"(C.C),SG(H4)]
 Deg. of freedom     3
 Full point group                 D2H     NOp   8
 RotChk:  IX=0 Diff= 2.57D-15
 Largest Abelian subgroup         D2H     NOp   8
 Largest concise Abelian subgroup D2      NOp   4
                         Standard orientation:                         
 ---------------------------------------------------------------------
 Center     Atomic      Atomic             Coordinates (Angstroms)
 Number     Number       Type             X           Y           Z
 ---------------------------------------------------------------------
      1          6           0        0.000000   -0.000000    0.659539
      2          6           0        0.000000   -0.000000   -0.659539
      3          1           0       -0.000000    0.915095    1.226710
      4          1           0       -0.000000   -0.915095    1.226710
      5          1           0       -0.000000   -0.915095   -1.226710
      6          1           0        0.000000    0.915095   -1.226710
 ---------------------------------------------------------------------
 Rotational constants (GHZ):         149.7060543          30.6175573          25.4189324
 Leave Link  202 at Tue Dec 14 13:38:49 2021, MaxMem=  1610612736 cpu:               0.2 elap:               0.1
 (Enter /usr/local/g16reva03/legacy_cpu/g16/l301.exe)
 Standard basis: 6-31G(d) (6D, 7F)
 Ernie: Thresh=  0.10000D-02 Tol=  0.10000D-05 Strict=F.
 There are    10 symmetry adapted cartesian basis functions of AG  symmetry.
 There are     1 symmetry adapted cartesian basis functions of B1G symmetry.
 There are     3 symmetry adapted cartesian basis functions of B2G symmetry.
 There are     5 symmetry adapted cartesian basis functions of B3G symmetry.
 There are     1 symmetry adapted cartesian basis functions of AU  symmetry.
 There are    10 symmetry adapted cartesian basis functions of B1U symmetry.
 There are     5 symmetry adapted cartesian basis functions of B2U symmetry.
 There are     3 symmetry adapted cartesian basis functions of B3U symmetry.
 There are    10 symmetry adapted basis functions of AG  symmetry.
 There are     1 symmetry adapted basis functions of B1G symmetry.
 There are     3 symmetry adapted basis functions of B2G symmetry.
 There are     5 symmetry adapted basis functions of B3G symmetry.
 There are     1 symmetry adapted basis functions of AU  symmetry.
 There are    10 symmetry adapted basis functions of B1U symmetry.
 There are     5 symmetry adapted basis functions of B2U symmetry.
 There are     3 symmetry adapted basis functions of B3U symmetry.
    38 basis functions,    72 primitive gaussians,    38 cartesian basis functions
     8 alpha electrons        8 beta electrons
       nuclear repulsion energy        33.6519866130 Hartrees.
 IExCor=    0 DFT=F Ex=HF Corr=None ExCW=0 ScaHFX=  1.000000
 ScaDFX=  1.000000  1.000000  1.000000  1.000000 ScalE2=  1.000000  1.000000
 IRadAn=      5 IRanWt=     -1 IRanGd=            0 ICorTp=0 IEmpDi=  4
 NAtoms=    6 NActive=    6 NUniq=    2 SFac= 4.00D+00 NAtFMM=   60 NAOKFM=F Big=F
 Integral buffers will be    131072 words long.
 Raffenetti 1 integral format.
 Two-electron integral symmetry is turned on.
 Leave Link  301 at Tue Dec 14 13:38:49 2021, MaxMem=  1610612736 cpu:               0.9 elap:               0.1
 (Enter /usr/local/g16reva03/legacy_cpu/g16/l302.exe)
 NPDir=0 NMtPBC=     1 NCelOv=     1 NCel=       1 NClECP=     1 NCelD=      1
         NCelK=      1 NCelE2=     1 NClLst=     1 CellRange=     0.0.
 One-electron integrals computed using PRISM.
 One-electron integral symmetry used in STVInt
 NBasis=    38 RedAO= T EigKep=  7.31D-03  NBF=    10     1     3     5     1    10     5     3
 NBsUse=    38 1.00D-06 EigRej= -1.00D+00 NBFU=    10     1     3     5     1    10     5     3
 Leave Link  302 at Tue Dec 14 13:38:50 2021, MaxMem=  1610612736 cpu:               1.4 elap:               0.2
 (Enter /usr/local/g16reva03/legacy_cpu/g16/l303.exe)
 DipDrv:  MaxL=1.
 Leave Link  303 at Tue Dec 14 13:38:50 2021, MaxMem=  1610612736 cpu:               0.4 elap:               0.1
 (Enter /usr/local/g16reva03/legacy_cpu/g16/l401.exe)
 Initial guess from the checkpoint file:  "ethylene_opt_singlet.chk"
 B after Tr=     0.000000    0.000000   -0.000000
         Rot=    1.000000   -0.000000    0.000000   -0.000000 Ang=   0.00 deg.
 Guess basis will be translated and rotated to current coordinates.
 JPrj=2 DoOrth=T DoCkMO=T.
 Initial guess orbital symmetries:
       Occupied  (AG) (B1U) (AG) (B1U) (B2U) (AG) (B3G) (B3U)
       Virtual   (B2G) (AG) (B2U) (B1U) (B3G) (B1U) (AG) (B2U)
                 (B3U) (AG) (B2G) (B1U) (B2U) (B3G) (AG) (B1U)
                 (B1U) (B3G) (B3U) (B1G) (AU) (AG) (B2U) (AG) (B1U)
                 (B2G) (B3G) (B1U) (AG) (B1U)
 The electronic state of the initial guess is 1-AG.
 Generating alternative initial guess.
 ExpMin= 1.61D-01 ExpMax= 3.05D+03 ExpMxC= 4.57D+02 IAcc=2 IRadAn=         4 AccDes= 0.00D+00
 Harris functional with IExCor=  205 and IRadAn=       4 diagonalized for initial guess.
 HarFok:  IExCor=  205 AccDes= 0.00D+00 IRadAn=         4 IDoV= 1 UseB2=F ITyADJ=14
 ICtDFT=  3500011 ScaDFX=  1.000000  1.000000  1.000000  1.000000
 FoFCou: FMM=F IPFlag=           0 FMFlag=      100000 FMFlg1=           0
         NFxFlg=           0 DoJE=T BraDBF=F KetDBF=T FulRan=T
         wScrn=  0.000000 ICntrl=       500 IOpCl=  0 I1Cent=   200000004 NGrid=           0
         NMat0=    1 NMatS0=      1 NMatT0=    0 NMatD0=    1 NMtDS0=    0 NMtDT0=    0
 Petite list used in FoFCou.
 Harris En= -78.2251566245624    
 Leave Link  401 at Tue Dec 14 13:38:50 2021, MaxMem=  1610612736 cpu:               2.9 elap:               0.4
 (Enter /usr/local/g16reva03/legacy_cpu/g16/l502.exe)
 Keep R1 ints in memory in symmetry-blocked form, NReq=1937873.
 FoFCou: FMM=F IPFlag=           0 FMFlag=           0 FMFlg1=           0
         NFxFlg=           0 DoJE=F BraDBF=F KetDBF=F FulRan=T
         wScrn=  0.000000 ICntrl=       600 IOpCl=  0 I1Cent=           0 NGrid=           0
         NMat0=    1 NMatS0=    741 NMatT0=    0 NMatD0=    1 NMtDS0=    0 NMtDT0=    0
 Petite list used in FoFCou.
 Closed shell SCF:
 Using DIIS extrapolation, IDIIS=  1040.
 NGot=  1610612736 LenX=  1610564887 LenY=  1610563002
 Requested convergence on RMS density matrix=1.00D-08 within 128 cycles.
 Requested convergence on MAX density matrix=1.00D-06.
 Requested convergence on             energy=1.00D-06.
 No special actions if energy rises.

 Cycle   1  Pass 1  IDiag  1:
 E= -78.0316560001747    
 DIIS: error= 1.56D-03 at cycle   1 NSaved=   1.
 NSaved= 1 IEnMin= 1 EnMin= -78.0316560001747     IErMin= 1 ErrMin= 1.56D-03
 ErrMax= 1.56D-03  0.00D+00 EMaxC= 1.00D-01 BMatC= 4.44D-05 BMatP= 4.44D-05
 IDIUse=3 WtCom= 9.84D-01 WtEn= 1.56D-02
 Coeff-Com:  0.100D+01
 Coeff-En:   0.100D+01
 Coeff:      0.100D+01
 Gap=     0.557 Goal=   None    Shift=    0.000
 GapD=    0.557 DampG=2.000 DampE=1.000 DampFc=2.0000 IDamp=-1.
 RMSDP=1.82D-04 MaxDP=1.74D-03              OVMax= 2.89D-03

 Cycle   2  Pass 1  IDiag  1:
 E= -78.0317058947215     Delta-E=       -0.000049894547 Rises=F Damp=F
 DIIS: error= 3.53D-04 at cycle   2 NSaved=   2.
 NSaved= 2 IEnMin= 2 EnMin= -78.0317058947215     IErMin= 2 ErrMin= 3.53D-04
 ErrMax= 3.53D-04  0.00D+00 EMaxC= 1.00D-01 BMatC= 5.03D-06 BMatP= 4.44D-05
 IDIUse=3 WtCom= 9.96D-01 WtEn= 3.53D-03
 Coeff-Com:  0.185D+00 0.815D+00
 Coeff-En:   0.000D+00 0.100D+01
 Coeff:      0.184D+00 0.816D+00
 Gap=     0.557 Goal=   None    Shift=    0.000
 RMSDP=5.18D-05 MaxDP=4.66D-04 DE=-4.99D-05 OVMax= 5.77D-04

 Cycle   3  Pass 1  IDiag  1:
 E= -78.0317106799798     Delta-E=       -0.000004785258 Rises=F Damp=F
 DIIS: error= 1.03D-04 at cycle   3 NSaved=   3.
 NSaved= 3 IEnMin= 3 EnMin= -78.0317106799798     IErMin= 3 ErrMin= 1.03D-04
 ErrMax= 1.03D-04  0.00D+00 EMaxC= 1.00D-01 BMatC= 1.29D-07 BMatP= 5.03D-06
 IDIUse=3 WtCom= 9.99D-01 WtEn= 1.03D-03
 Coeff-Com: -0.561D-01-0.204D-01 0.108D+01
 Coeff-En:   0.000D+00 0.000D+00 0.100D+01
 Coeff:     -0.561D-01-0.204D-01 0.108D+01
 Gap=     0.557 Goal=   None    Shift=    0.000
 RMSDP=1.01D-05 MaxDP=9.61D-05 DE=-4.79D-06 OVMax= 1.89D-04

 Cycle   4  Pass 1  IDiag  1:
 E= -78.0317108685603     Delta-E=       -0.000000188580 Rises=F Damp=F
 DIIS: error= 9.00D-06 at cycle   4 NSaved=   4.
 NSaved= 4 IEnMin= 4 EnMin= -78.0317108685603     IErMin= 4 ErrMin= 9.00D-06
 ErrMax= 9.00D-06  0.00D+00 EMaxC= 1.00D-01 BMatC= 1.21D-09 BMatP= 1.29D-07
 IDIUse=1 WtCom= 1.00D+00 WtEn= 0.00D+00
 Coeff-Com:  0.102D-01-0.160D-02-0.220D+00 0.121D+01
 Coeff:      0.102D-01-0.160D-02-0.220D+00 0.121D+01
 Gap=     0.557 Goal=   None    Shift=    0.000
 RMSDP=1.42D-06 MaxDP=1.25D-05 DE=-1.89D-07 OVMax= 2.02D-05

 Cycle   5  Pass 1  IDiag  1:
 E= -78.0317108708949     Delta-E=       -0.000000002335 Rises=F Damp=F
 DIIS: error= 9.27D-07 at cycle   5 NSaved=   5.
 NSaved= 5 IEnMin= 5 EnMin= -78.0317108708949     IErMin= 5 ErrMin= 9.27D-07
 ErrMax= 9.27D-07  0.00D+00 EMaxC= 1.00D-01 BMatC= 2.74D-11 BMatP= 1.21D-09
 IDIUse=1 WtCom= 1.00D+00 WtEn= 0.00D+00
 Coeff-Com: -0.531D-04-0.170D-04 0.493D-02-0.140D+00 0.114D+01
 Coeff:     -0.531D-04-0.170D-04 0.493D-02-0.140D+00 0.114D+01
 Gap=     0.557 Goal=   None    Shift=    0.000
 RMSDP=2.74D-07 MaxDP=2.22D-06 DE=-2.33D-09 OVMax= 3.04D-06

 Cycle   6  Pass 1  IDiag  1:
 E= -78.0317108709559     Delta-E=       -0.000000000061 Rises=F Damp=F
 DIIS: error= 1.88D-07 at cycle   6 NSaved=   6.
 NSaved= 6 IEnMin= 6 EnMin= -78.0317108709559     IErMin= 6 ErrMin= 1.88D-07
 ErrMax= 1.88D-07  0.00D+00 EMaxC= 1.00D-01 BMatC= 9.05D-13 BMatP= 2.74D-11
 IDIUse=1 WtCom= 1.00D+00 WtEn= 0.00D+00
 Coeff-Com: -0.143D-03 0.273D-04 0.268D-02 0.542D-02-0.256D+00 0.125D+01
 Coeff:     -0.143D-03 0.273D-04 0.268D-02 0.542D-02-0.256D+00 0.125D+01
 Gap=     0.557 Goal=   None    Shift=    0.000
 RMSDP=6.31D-08 MaxDP=4.74D-07 DE=-6.10D-11 OVMax= 6.49D-07

 Cycle   7  Pass 1  IDiag  1:
 E= -78.0317108709579     Delta-E=       -0.000000000002 Rises=F Damp=F
 DIIS: error= 1.86D-08 at cycle   7 NSaved=   7.
 NSaved= 7 IEnMin= 7 EnMin= -78.0317108709579     IErMin= 7 ErrMin= 1.86D-08
 ErrMax= 1.86D-08  0.00D+00 EMaxC= 1.00D-01 BMatC= 1.24D-14 BMatP= 9.05D-13
 IDIUse=1 WtCom= 1.00D+00 WtEn= 0.00D+00
 Coeff-Com:  0.316D-04 0.334D-05-0.688D-03 0.176D-02 0.305D-01-0.256D+00
 Coeff-Com:  0.122D+01
 Coeff:      0.316D-04 0.334D-05-0.688D-03 0.176D-02 0.305D-01-0.256D+00
 Coeff:      0.122D+01
 Gap=     0.557 Goal=   None    Shift=    0.000
 RMSDP=6.50D-09 MaxDP=4.10D-08 DE=-1.95D-12 OVMax= 6.51D-08

 SCF Done:  E(RHF) =  -78.0317108710     A.U. after    7 cycles
            NFock=  7  Conv=0.65D-08     -V/T= 2.0008
 KE= 7.797185759566D+01 PE=-2.485948634823D+02 EE= 5.893930840273D+01
 Leave Link  502 at Tue Dec 14 13:38:50 2021, MaxMem=  1610612736 cpu:               1.8 elap:               0.3
 (Enter /usr/local/g16reva03/legacy_cpu/g16/l701.exe)
 ... and contract with generalized density number  0.
 Compute integral first derivatives.
 Leave Link  701 at Tue Dec 14 13:38:51 2021, MaxMem=  1610612736 cpu:               1.6 elap:               0.2
 (Enter /usr/local/g16reva03/legacy_cpu/g16/l702.exe)
 L702 exits ... SP integral derivatives will be done elsewhere.
 Leave Link  702 at Tue Dec 14 13:38:51 2021, MaxMem=  1610612736 cpu:               0.4 elap:               0.1
 (Enter /usr/local/g16reva03/legacy_cpu/g16/l703.exe)
 Integral derivatives from FoFJK, PRISM(SPDF).
 Compute integral first derivatives, UseDBF=F ICtDFT=           0.
 Calling FoFJK, ICntrl=      2127 FMM=F ISym2X=1 I1Cent= 0 IOpClX= 0 NMat=1 NMatS=1 NMatT=0.
 FoFJK:  IHMeth= 1 ICntrl=    2127 DoSepK=F KAlg= 0 I1Cent=           0 FoldK=F
 IRaf=         0 NMat=       1 IRICut=       1 DoRegI=T DoRafI=F ISym2E= 1 IDoP0=0 IntGTp=1.
 FoFCou: FMM=F IPFlag=           0 FMFlag=      100000 FMFlg1=         800
         NFxFlg=           0 DoJE=F BraDBF=F KetDBF=F FulRan=T
         wScrn=  0.000000 ICntrl=      2127 IOpCl=  0 I1Cent=           0 NGrid=           0
         NMat0=    1 NMatS0=      1 NMatT0=    0 NMatD0=    1 NMtDS0=    0 NMtDT0=    0
 Petite list used in FoFCou.
 Leave Link  703 at Tue Dec 14 13:38:51 2021, MaxMem=  1610612736 cpu:               2.3 elap:               0.3
 (Enter /usr/local/g16reva03/legacy_cpu/g16/l716.exe)
 Dipole        =-6.07543850D-17-2.22044605D-16 8.88178420D-16
 ***** Axes restored to original set *****
 -------------------------------------------------------------------
 Center     Atomic                   Forces (Hartrees/Bohr)
 Number     Number              X              Y              Z
 -------------------------------------------------------------------
      1        6           0.000000000    0.000000000    0.002489915
      2        6          -0.000000000   -0.000000000   -0.002489915
      3        1          -0.000442869   -0.000000000    0.000248470
      4        1           0.000442869    0.000000000    0.000248470
      5        1           0.000442869    0.000000000   -0.000248470
      6        1          -0.000442869   -0.000000000   -0.000248470
 -------------------------------------------------------------------
 Cartesian Forces:  Max     0.002489915 RMS     0.000863804
 Leave Link  716 at Tue Dec 14 13:38:51 2021, MaxMem=  1610612736 cpu:               0.4 elap:               0.1
 (Enter /usr/local/g16reva03/legacy_cpu/g16/l103.exe)

 GradGradGradGradGradGradGradGradGradGradGradGradGradGradGradGradGradGrad
 Berny optimization.
 Using GEDIIS/GDIIS optimizer.
 FormGI is forming the generalized inverse of G from B-inverse, IUseBI=4.
 Internal  Forces:  Max     0.002986856 RMS     0.000814597
 Search for a local minimum.
 Step number   2 out of a maximum of   25
 All quantities printed in internal units (Hartrees-Bohrs-Radians)
 RMS Force = .81460D-03 SwitMx=.10000D-02 MixMth= 2
 Mixed Optimization -- En-DIIS/RFO-DIIS
 Update second derivatives using D2CorX and points    1    2
 DE= -1.96D-04 DEPred=-2.36D-04 R= 8.31D-01
 TightC=F SS=  1.41D+00  RLast= 3.50D-02 DXNew= 5.0454D-01 1.0505D-01
 Trust test= 8.31D-01 RLast= 3.50D-02 DXMaxT set to 3.00D-01
 The second derivative matrix:
                          R1        R2        R3        R4        R5
           R1           0.74616
           R2           0.02341   0.37511
           R3           0.02341   0.00281   0.37511
           R4           0.02341   0.00281   0.00281   0.37511
           R5           0.02341   0.00281   0.00281   0.00281   0.37511
           A1           0.00146  -0.00047  -0.00047  -0.00047  -0.00047
           A2           0.00146  -0.00047  -0.00047  -0.00047  -0.00047
           A3          -0.00292   0.00095   0.00095   0.00095   0.00095
           A4           0.00146  -0.00047  -0.00047  -0.00047  -0.00047
           A5           0.00146  -0.00047  -0.00047  -0.00047  -0.00047
           A6          -0.00292   0.00095   0.00095   0.00095   0.00095
           D1          -0.00000  -0.00000  -0.00000  -0.00000  -0.00000
           D2           0.00000   0.00000   0.00000   0.00000   0.00000
           D3          -0.00000  -0.00000  -0.00000  -0.00000  -0.00000
           D4           0.00000   0.00000   0.00000   0.00000   0.00000
                          A1        A2        A3        A4        A5
           A1           0.15977
           A2          -0.00023   0.15977
           A3           0.00046   0.00046   0.15907
           A4          -0.00023  -0.00023   0.00046   0.15977
           A5          -0.00023  -0.00023   0.00046  -0.00023   0.15977
           A6           0.00046   0.00046  -0.00093   0.00046   0.00046
           D1          -0.00000  -0.00000   0.00000  -0.00000  -0.00000
           D2           0.00000   0.00000  -0.00000   0.00000   0.00000
           D3          -0.00000  -0.00000   0.00000  -0.00000  -0.00000
           D4           0.00000   0.00000  -0.00000   0.00000   0.00000
                          A6        D1        D2        D3        D4
           A6           0.15907
           D1           0.00000   0.03279
           D2          -0.00000  -0.00000   0.03279
           D3           0.00000   0.00000  -0.00000   0.03279
           D4          -0.00000  -0.00000   0.00000  -0.00000   0.03279
 ITU=  1  0
 Use linear search instead of GDIIS.
     Eigenvalues ---    0.03279   0.03279   0.03279   0.15712   0.16000
     Eigenvalues ---    0.16000   0.16000   0.37230   0.37230   0.37230
     Eigenvalues ---    0.37767   0.75214
 RFO step:  Lambda=-3.20698714D-06 EMin= 3.27928327D-02
 Quartic linear search produced a step of -0.14055.
 Iteration  1 RMS(Cart)=  0.00152105 RMS(Int)=  0.00000004
 Iteration  2 RMS(Cart)=  0.00000005 RMS(Int)=  0.00000000
 ITry= 1 IFail=0 DXMaxC= 2.39D-03 DCOld= 1.00D+10 DXMaxT= 3.00D-01 DXLimC= 3.00D+00 Rises=F
 ClnCor:  largest displacement from symmetrization is 2.65D-14 for atom     5.
 Variable       Old X    -DE/DX   Delta X   Delta X   Delta X     New X
                                 (Linear)    (Quad)   (Total)
    R1        2.49270  -0.00299  -0.00241  -0.00148  -0.00389   2.48881
    R2        2.03449  -0.00051  -0.00175   0.00064  -0.00112   2.03337
    R3        2.03449  -0.00051  -0.00175   0.00064  -0.00112   2.03337
    R4        2.03449  -0.00051  -0.00175   0.00064  -0.00112   2.03337
    R5        2.03449  -0.00051  -0.00175   0.00064  -0.00112   2.03337
    A1        2.12564   0.00001  -0.00071   0.00080   0.00008   2.12573
    A2        2.12564   0.00001  -0.00071   0.00080   0.00008   2.12573
    A3        2.03190  -0.00003   0.00142  -0.00159  -0.00017   2.03173
    A4        2.12564   0.00001  -0.00071   0.00080   0.00008   2.12573
    A5        2.12564   0.00001  -0.00071   0.00080   0.00008   2.12573
    A6        2.03190  -0.00003   0.00142  -0.00159  -0.00017   2.03173
    D1        3.14159  -0.00000   0.00000  -0.00000   0.00000   3.14159
    D2        0.00000   0.00000   0.00000   0.00000  -0.00000   0.00000
    D3        0.00000  -0.00000   0.00000  -0.00000   0.00000   0.00000
    D4        3.14159   0.00000   0.00000   0.00000   0.00000   3.14159
         Item               Value     Threshold  Converged?
 Maximum Force            0.002987     0.000450     NO 
 RMS     Force            0.000815     0.000300     NO 
 Maximum Displacement     0.002388     0.001800     NO 
 RMS     Displacement     0.001521     0.001200     NO 
 Predicted change in Energy=-6.888222D-06
 Lowest energy point so far.  Saving SCF results.
 GradGradGradGradGradGradGradGradGradGradGradGradGradGradGradGradGradGrad

 Leave Link  103 at Tue Dec 14 13:38:51 2021, MaxMem=  1610612736 cpu:               0.2 elap:               0.1
 (Enter /usr/local/g16reva03/legacy_cpu/g16/l202.exe)
                          Input orientation:                          
 ---------------------------------------------------------------------
 Center     Atomic      Atomic             Coordinates (Angstroms)
 Number     Number       Type             X           Y           Z
 ---------------------------------------------------------------------
      1          6           0        0.000000   -0.000000   -0.003510
      2          6           0       -0.000000    0.000000    1.313510
      3          1           0        0.914545    0.000000   -0.570446
      4          1           0       -0.914545   -0.000000   -0.570446
      5          1           0       -0.914545   -0.000000    1.880446
      6          1           0        0.914545    0.000000    1.880446
 ---------------------------------------------------------------------
                    Distance matrix (angstroms):
                    1          2          3          4          5
     1  C    0.000000
     2  C    1.317021   0.000000
     3  H    1.076015   2.094203   0.000000
     4  H    1.076015   2.094203   1.829089   0.000000
     5  H    2.094203   1.076015   3.058176   2.450893   0.000000
     6  H    2.094203   1.076015   2.450893   3.058176   1.829089
                    6
     6  H    0.000000
 Stoichiometry    C2H4
 Framework group  D2H[C2"(C.C),SG(H4)]
 Deg. of freedom     3
 Full point group                 D2H     NOp   8
 RotChk:  IX=0 Diff= 2.02D-15
 Largest Abelian subgroup         D2H     NOp   8
 Largest concise Abelian subgroup D2      NOp   4
                         Standard orientation:                         
 ---------------------------------------------------------------------
 Center     Atomic      Atomic             Coordinates (Angstroms)
 Number     Number       Type             X           Y           Z
 ---------------------------------------------------------------------
      1          6           0        0.000000   -0.000000    0.658510
      2          6           0        0.000000   -0.000000   -0.658510
      3          1           0        0.000000    0.914545    1.225446
      4          1           0       -0.000000   -0.914545    1.225446
      5          1           0       -0.000000   -0.914545   -1.225446
      6          1           0        0.000000    0.914545   -1.225446
 ---------------------------------------------------------------------
 Rotational constants (GHZ):         149.8864213          30.7013315          25.4818648
 Leave Link  202 at Tue Dec 14 13:38:51 2021, MaxMem=  1610612736 cpu:               0.2 elap:               0.1
 (Enter /usr/local/g16reva03/legacy_cpu/g16/l301.exe)
 Standard basis: 6-31G(d) (6D, 7F)
 Ernie: Thresh=  0.10000D-02 Tol=  0.10000D-05 Strict=F.
 There are    10 symmetry adapted cartesian basis functions of AG  symmetry.
 There are     1 symmetry adapted cartesian basis functions of B1G symmetry.
 There are     3 symmetry adapted cartesian basis functions of B2G symmetry.
 There are     5 symmetry adapted cartesian basis functions of B3G symmetry.
 There are     1 symmetry adapted cartesian basis functions of AU  symmetry.
 There are    10 symmetry adapted cartesian basis functions of B1U symmetry.
 There are     5 symmetry adapted cartesian basis functions of B2U symmetry.
 There are     3 symmetry adapted cartesian basis functions of B3U symmetry.
 There are    10 symmetry adapted basis functions of AG  symmetry.
 There are     1 symmetry adapted basis functions of B1G symmetry.
 There are     3 symmetry adapted basis functions of B2G symmetry.
 There are     5 symmetry adapted basis functions of B3G symmetry.
 There are     1 symmetry adapted basis functions of AU  symmetry.
 There are    10 symmetry adapted basis functions of B1U symmetry.
 There are     5 symmetry adapted basis functions of B2U symmetry.
 There are     3 symmetry adapted basis functions of B3U symmetry.
    38 basis functions,    72 primitive gaussians,    38 cartesian basis functions
     8 alpha electrons        8 beta electrons
       nuclear repulsion energy        33.6887991342 Hartrees.
 IExCor=    0 DFT=F Ex=HF Corr=None ExCW=0 ScaHFX=  1.000000
 ScaDFX=  1.000000  1.000000  1.000000  1.000000 ScalE2=  1.000000  1.000000
 IRadAn=      5 IRanWt=     -1 IRanGd=            0 ICorTp=0 IEmpDi=  4
 NAtoms=    6 NActive=    6 NUniq=    2 SFac= 4.00D+00 NAtFMM=   60 NAOKFM=F Big=F
 Integral buffers will be    131072 words long.
 Raffenetti 1 integral format.
 Two-electron integral symmetry is turned on.
 Leave Link  301 at Tue Dec 14 13:38:51 2021, MaxMem=  1610612736 cpu:               0.9 elap:               0.1
 (Enter /usr/local/g16reva03/legacy_cpu/g16/l302.exe)
 NPDir=0 NMtPBC=     1 NCelOv=     1 NCel=       1 NClECP=     1 NCelD=      1
         NCelK=      1 NCelE2=     1 NClLst=     1 CellRange=     0.0.
 One-electron integrals computed using PRISM.
 One-electron integral symmetry used in STVInt
 NBasis=    38 RedAO= T EigKep=  7.25D-03  NBF=    10     1     3     5     1    10     5     3
 NBsUse=    38 1.00D-06 EigRej= -1.00D+00 NBFU=    10     1     3     5     1    10     5     3
 Leave Link  302 at Tue Dec 14 13:38:52 2021, MaxMem=  1610612736 cpu:               1.4 elap:               0.2
 (Enter /usr/local/g16reva03/legacy_cpu/g16/l303.exe)
 DipDrv:  MaxL=1.
 Leave Link  303 at Tue Dec 14 13:38:52 2021, MaxMem=  1610612736 cpu:               0.4 elap:               0.1
 (Enter /usr/local/g16reva03/legacy_cpu/g16/l401.exe)
 Initial guess from the checkpoint file:  "ethylene_opt_singlet.chk"
 B after Tr=    -0.000000    0.000000    0.000000
         Rot=    1.000000    0.000000   -0.000000    0.000000 Ang=   0.00 deg.
 Guess basis will be translated and rotated to current coordinates.
 JPrj=2 DoOrth=T DoCkMO=T.
 Initial guess orbital symmetries:
       Occupied  (AG) (B1U) (AG) (B1U) (B2U) (AG) (B3G) (B3U)
       Virtual   (B2G) (AG) (B2U) (B1U) (B3G) (B1U) (AG) (B2U)
                 (B3U) (AG) (B2G) (B1U) (B2U) (B3G) (AG) (B1U)
                 (B1U) (B3G) (B3U) (B1G) (AU) (AG) (B2U) (AG) (B1U)
                 (B2G) (B3G) (B1U) (AG) (B1U)
 The electronic state of the initial guess is 1-AG.
 Leave Link  401 at Tue Dec 14 13:38:52 2021, MaxMem=  1610612736 cpu:               1.3 elap:               0.2
 (Enter /usr/local/g16reva03/legacy_cpu/g16/l502.exe)
 Keep R1 ints in memory in symmetry-blocked form, NReq=1937873.
 FoFCou: FMM=F IPFlag=           0 FMFlag=           0 FMFlg1=           0
         NFxFlg=           0 DoJE=F BraDBF=F KetDBF=F FulRan=T
         wScrn=  0.000000 ICntrl=       600 IOpCl=  0 I1Cent=           0 NGrid=           0
         NMat0=    1 NMatS0=    741 NMatT0=    0 NMatD0=    1 NMtDS0=    0 NMtDT0=    0
 Petite list used in FoFCou.
 Closed shell SCF:
 Using DIIS extrapolation, IDIIS=  1040.
 NGot=  1610612736 LenX=  1610564887 LenY=  1610563002
 Requested convergence on RMS density matrix=1.00D-08 within 128 cycles.
 Requested convergence on MAX density matrix=1.00D-06.
 Requested convergence on             energy=1.00D-06.
 No special actions if energy rises.

 Cycle   1  Pass 1  IDiag  1:
 E= -78.0317165590516    
 DIIS: error= 2.27D-04 at cycle   1 NSaved=   1.
 NSaved= 1 IEnMin= 1 EnMin= -78.0317165590516     IErMin= 1 ErrMin= 2.27D-04
 ErrMax= 2.27D-04  0.00D+00 EMaxC= 1.00D-01 BMatC= 1.13D-06 BMatP= 1.13D-06
 IDIUse=3 WtCom= 9.98D-01 WtEn= 2.27D-03
 Coeff-Com:  0.100D+01
 Coeff-En:   0.100D+01
 Coeff:      0.100D+01
 Gap=     0.558 Goal=   None    Shift=    0.000
 RMSDP=2.99D-05 MaxDP=2.44D-04              OVMax= 4.43D-04

 Cycle   2  Pass 1  IDiag  1:
 E= -78.0317179210182     Delta-E=       -0.000001361967 Rises=F Damp=F
 DIIS: error= 7.86D-05 at cycle   2 NSaved=   2.
 NSaved= 2 IEnMin= 2 EnMin= -78.0317179210182     IErMin= 2 ErrMin= 7.86D-05
 ErrMax= 7.86D-05  0.00D+00 EMaxC= 1.00D-01 BMatC= 1.31D-07 BMatP= 1.13D-06
 IDIUse=1 WtCom= 1.00D+00 WtEn= 0.00D+00
 Coeff-Com:  0.164D+00 0.836D+00
 Coeff:      0.164D+00 0.836D+00
 Gap=     0.558 Goal=   None    Shift=    0.000
 RMSDP=8.80D-06 MaxDP=8.76D-05 DE=-1.36D-06 OVMax= 1.31D-04

 Cycle   3  Pass 1  IDiag  1:
 E= -78.0317180531802     Delta-E=       -0.000000132162 Rises=F Damp=F
 DIIS: error= 1.96D-05 at cycle   3 NSaved=   3.
 NSaved= 3 IEnMin= 3 EnMin= -78.0317180531802     IErMin= 3 ErrMin= 1.96D-05
 ErrMax= 1.96D-05  0.00D+00 EMaxC= 1.00D-01 BMatC= 5.53D-09 BMatP= 1.31D-07
 IDIUse=1 WtCom= 1.00D+00 WtEn= 0.00D+00
 Coeff-Com: -0.744D-01-0.355D-01 0.111D+01
 Coeff:     -0.744D-01-0.355D-01 0.111D+01
 Gap=     0.558 Goal=   None    Shift=    0.000
 RMSDP=2.60D-06 MaxDP=2.07D-05 DE=-1.32D-07 OVMax= 3.82D-05

 Cycle   4  Pass 1  IDiag  1:
 E= -78.0317180625089     Delta-E=       -0.000000009329 Rises=F Damp=F
 DIIS: error= 2.16D-06 at cycle   4 NSaved=   4.
 NSaved= 4 IEnMin= 4 EnMin= -78.0317180625089     IErMin= 4 ErrMin= 2.16D-06
 ErrMax= 2.16D-06  0.00D+00 EMaxC= 1.00D-01 BMatC= 5.06D-11 BMatP= 5.53D-09
 IDIUse=1 WtCom= 1.00D+00 WtEn= 0.00D+00
 Coeff-Com:  0.148D-01-0.358D-04-0.252D+00 0.124D+01
 Coeff:      0.148D-01-0.358D-04-0.252D+00 0.124D+01
 Gap=     0.558 Goal=   None    Shift=    0.000
 RMSDP=3.72D-07 MaxDP=2.85D-06 DE=-9.33D-09 OVMax= 5.07D-06

 Cycle   5  Pass 1  IDiag  1:
 E= -78.0317180626249     Delta-E=       -0.000000000116 Rises=F Damp=F
 DIIS: error= 3.10D-07 at cycle   5 NSaved=   5.
 NSaved= 5 IEnMin= 5 EnMin= -78.0317180626249     IErMin= 5 ErrMin= 3.10D-07
 ErrMax= 3.10D-07  0.00D+00 EMaxC= 1.00D-01 BMatC= 1.03D-12 BMatP= 5.06D-11
 IDIUse=1 WtCom= 1.00D+00 WtEn= 0.00D+00
 Coeff-Com: -0.228D-02 0.278D-03 0.422D-01-0.287D+00 0.125D+01
 Coeff:     -0.228D-02 0.278D-03 0.422D-01-0.287D+00 0.125D+01
 Gap=     0.558 Goal=   None    Shift=    0.000
 RMSDP=4.71D-08 MaxDP=4.37D-07 DE=-1.16D-10 OVMax= 7.91D-07

 Cycle   6  Pass 1  IDiag  1:
 E= -78.0317180626272     Delta-E=       -0.000000000002 Rises=F Damp=F
 DIIS: error= 3.82D-08 at cycle   6 NSaved=   6.
 NSaved= 6 IEnMin= 6 EnMin= -78.0317180626272     IErMin= 6 ErrMin= 3.82D-08
 ErrMax= 3.82D-08  0.00D+00 EMaxC= 1.00D-01 BMatC= 1.97D-14 BMatP= 1.03D-12
 IDIUse=1 WtCom= 1.00D+00 WtEn= 0.00D+00
 Coeff-Com:  0.162D-03 0.368D-04-0.342D-02 0.257D-01-0.214D+00 0.119D+01
 Coeff:      0.162D-03 0.368D-04-0.342D-02 0.257D-01-0.214D+00 0.119D+01
 Gap=     0.558 Goal=   None    Shift=    0.000
 RMSDP=7.21D-09 MaxDP=5.69D-08 DE=-2.30D-12 OVMax= 1.06D-07

 SCF Done:  E(RHF) =  -78.0317180626     A.U. after    6 cycles
            NFock=  6  Conv=0.72D-08     -V/T= 2.0006
 KE= 7.798231433487D+01 PE=-2.486773056948D+02 EE= 5.897447416303D+01
 Leave Link  502 at Tue Dec 14 13:38:52 2021, MaxMem=  1610612736 cpu:               2.0 elap:               0.3
 (Enter /usr/local/g16reva03/legacy_cpu/g16/l701.exe)
 ... and contract with generalized density number  0.
 Compute integral first derivatives.
 Leave Link  701 at Tue Dec 14 13:38:52 2021, MaxMem=  1610612736 cpu:               1.7 elap:               0.2
 (Enter /usr/local/g16reva03/legacy_cpu/g16/l702.exe)
 L702 exits ... SP integral derivatives will be done elsewhere.
 Leave Link  702 at Tue Dec 14 13:38:53 2021, MaxMem=  1610612736 cpu:               0.4 elap:               0.1
 (Enter /usr/local/g16reva03/legacy_cpu/g16/l703.exe)
 Integral derivatives from FoFJK, PRISM(SPDF).
 Compute integral first derivatives, UseDBF=F ICtDFT=           0.
 Calling FoFJK, ICntrl=      2127 FMM=F ISym2X=1 I1Cent= 0 IOpClX= 0 NMat=1 NMatS=1 NMatT=0.
 FoFJK:  IHMeth= 1 ICntrl=    2127 DoSepK=F KAlg= 0 I1Cent=           0 FoldK=F
 IRaf=         0 NMat=       1 IRICut=       1 DoRegI=T DoRafI=F ISym2E= 1 IDoP0=0 IntGTp=1.
 FoFCou: FMM=F IPFlag=           0 FMFlag=      100000 FMFlg1=         800
         NFxFlg=           0 DoJE=F BraDBF=F KetDBF=F FulRan=T
         wScrn=  0.000000 ICntrl=      2127 IOpCl=  0 I1Cent=           0 NGrid=           0
         NMat0=    1 NMatS0=      1 NMatT0=    0 NMatD0=    1 NMtDS0=    0 NMtDT0=    0
 Petite list used in FoFCou.
 Leave Link  703 at Tue Dec 14 13:38:53 2021, MaxMem=  1610612736 cpu:               2.4 elap:               0.4
 (Enter /usr/local/g16reva03/legacy_cpu/g16/l716.exe)
 Dipole        =-6.06299057D-17-2.22044605D-16 0.00000000D+00
 ***** Axes restored to original set *****
 -------------------------------------------------------------------
 Center     Atomic                   Forces (Hartrees/Bohr)
 Number     Number              X              Y              Z
 -------------------------------------------------------------------
      1        6           0.000000000    0.000000000    0.000154712
      2        6           0.000000000   -0.000000000   -0.000154712
      3        1          -0.000055126   -0.000000000   -0.000038668
      4        1           0.000055126    0.000000000   -0.000038668
      5        1           0.000055126    0.000000000    0.000038668
      6        1          -0.000055126   -0.000000000    0.000038668
 -------------------------------------------------------------------
 Cartesian Forces:  Max     0.000154712 RMS     0.000060557
 Leave Link  716 at Tue Dec 14 13:38:53 2021, MaxMem=  1610612736 cpu:               0.4 elap:               0.1
 (Enter /usr/local/g16reva03/legacy_cpu/g16/l103.exe)

 GradGradGradGradGradGradGradGradGradGradGradGradGradGradGradGradGradGrad
 Berny optimization.
 Using GEDIIS/GDIIS optimizer.
 FormGI is forming the generalized inverse of G from B-inverse, IUseBI=4.
 Internal  Forces:  Max     0.000083925 RMS     0.000044663
 Search for a local minimum.
 Step number   3 out of a maximum of   25
 All quantities printed in internal units (Hartrees-Bohrs-Radians)
 RMS Force = .44663D-04 SwitMx=.10000D-02 MixMth= 2
 Mixed Optimization -- En-DIIS/RFO-DIIS
 Swapping is turned off.
 Update second derivatives using D2CorX and points    1    2    3
 DE= -7.19D-06 DEPred=-6.89D-06 R= 1.04D+00
 TightC=F SS=  1.41D+00  RLast= 4.50D-03 DXNew= 5.0454D-01 1.3487D-02
 Trust test= 1.04D+00 RLast= 4.50D-03 DXMaxT set to 3.00D-01
 The second derivative matrix:
                          R1        R2        R3        R4        R5
           R1           0.73254
           R2           0.01575   0.37318
           R3           0.01575   0.00088   0.37318
           R4           0.01575   0.00088   0.00088   0.37318
           R5           0.01575   0.00088   0.00088   0.00088   0.37318
           A1           0.00953   0.00067   0.00067   0.00067   0.00067
           A2           0.00953   0.00067   0.00067   0.00067   0.00067
           A3          -0.01907  -0.00135  -0.00135  -0.00135  -0.00135
           A4           0.00953   0.00067   0.00067   0.00067   0.00067
           A5           0.00953   0.00067   0.00067   0.00067   0.00067
           A6          -0.01907  -0.00135  -0.00135  -0.00135  -0.00135
           D1           0.00000   0.00000   0.00000   0.00000   0.00000
           D2           0.00000   0.00000   0.00000   0.00000   0.00000
           D3          -0.00000  -0.00000  -0.00000  -0.00000  -0.00000
           D4          -0.00000   0.00000   0.00000   0.00000   0.00000
                          A1        A2        A3        A4        A5
           A1           0.15966
           A2          -0.00034   0.15966
           A3           0.00067   0.00067   0.15865
           A4          -0.00034  -0.00034   0.00067   0.15966
           A5          -0.00034  -0.00034   0.00067  -0.00034   0.15966
           A6           0.00067   0.00067  -0.00135   0.00067   0.00067
           D1          -0.00000  -0.00000   0.00000  -0.00000  -0.00000
           D2           0.00000   0.00000  -0.00000   0.00000   0.00000
           D3          -0.00000  -0.00000   0.00000  -0.00000  -0.00000
           D4           0.00000   0.00000  -0.00000   0.00000   0.00000
                          A6        D1        D2        D3        D4
           A6           0.15865
           D1           0.00000   0.03279
           D2          -0.00000   0.00000   0.03279
           D3           0.00000  -0.00000  -0.00000   0.03279
           D4          -0.00000  -0.00000  -0.00000  -0.00000   0.03279
 ITU=  1  1  0
     Eigenvalues ---    0.03279   0.03279   0.03279   0.15404   0.16000
     Eigenvalues ---    0.16000   0.16000   0.37230   0.37230   0.37230
     Eigenvalues ---    0.37306   0.73721
 En-DIIS/RFO-DIIS/Sim-DIIS IScMMF=       -3 using points:     3    2
 RFO step:  Lambda=-1.59047695D-07.
 NNeg= 0 NGDIIS= 2 SimSw=  2.50D-03 Rises=F DC= -7.19D-06 SmlDif=  1.00D-05
 NRisDI= 0 DoIntr=F SqrtH=F CThrHd= 10.0 CDAdj=  3.0
 RMS Error=  0.2549077461D-03 NUsed= 2 OKEnD=F EnDIS=F
 InvSVX:  RCond= 5.05D-06 Info=           0 Equed=N FErr=  1.11D-15 BErr=  2.49D-17
 DidBck=F Rises=F RFO-DIIS coefs:    1.05709   -0.05709
 Iteration  1 RMS(Cart)=  0.00026875 RMS(Int)=  0.00000004
 Iteration  2 RMS(Cart)=  0.00000004 RMS(Int)=  0.00000000
 ITry= 1 IFail=0 DXMaxC= 3.73D-04 DCOld= 1.00D+10 DXMaxT= 3.00D-01 DXLimC= 3.00D+00 Rises=F
 ClnCor:  largest displacement from symmetrization is 5.30D-14 for atom     5.
 Variable       Old X    -DE/DX   Delta X   Delta X   Delta X     New X
                                 (Linear)    (Quad)   (Total)
    R1        2.48881  -0.00008  -0.00022   0.00008  -0.00014   2.48867
    R2        2.03337  -0.00003  -0.00006  -0.00001  -0.00007   2.03330
    R3        2.03337  -0.00003  -0.00006  -0.00001  -0.00007   2.03330
    R4        2.03337  -0.00003  -0.00006  -0.00001  -0.00007   2.03330
    R5        2.03337  -0.00003  -0.00006  -0.00001  -0.00007   2.03330
    A1        2.12573   0.00004   0.00000   0.00027   0.00028   2.12601
    A2        2.12573   0.00004   0.00000   0.00027   0.00028   2.12601
    A3        2.03173  -0.00008  -0.00001  -0.00055  -0.00056   2.03117
    A4        2.12573   0.00004   0.00000   0.00027   0.00028   2.12601
    A5        2.12573   0.00004   0.00000   0.00027   0.00028   2.12601
    A6        2.03173  -0.00008  -0.00001  -0.00055  -0.00056   2.03117
    D1        3.14159  -0.00000   0.00000  -0.00000   0.00000   3.14159
    D2        0.00000   0.00000   0.00000   0.00000  -0.00000   0.00000
    D3        0.00000  -0.00000   0.00000  -0.00000   0.00000   0.00000
    D4        3.14159   0.00000   0.00000   0.00000   0.00000   3.14159
         Item               Value     Threshold  Converged?
 Maximum Force            0.000084     0.000450     YES
 RMS     Force            0.000045     0.000300     YES
 Maximum Displacement     0.000373     0.001800     YES
 RMS     Displacement     0.000269     0.001200     YES
 Predicted change in Energy=-7.952392D-08
 Optimization completed.
    -- Stationary point found.
                           ----------------------------
                           !   Optimized Parameters   !
                           ! (Angstroms and Degrees)  !
 --------------------------                            --------------------------
 ! Name  Definition              Value          Derivative Info.                !
 --------------------------------------------------------------------------------
 ! R1    R(1,2)                  1.317          -DE/DX =   -0.0001              !
 ! R2    R(1,3)                  1.076          -DE/DX =    0.0                 !
 ! R3    R(1,4)                  1.076          -DE/DX =    0.0                 !
 ! R4    R(2,5)                  1.076          -DE/DX =    0.0                 !
 ! R5    R(2,6)                  1.076          -DE/DX =    0.0                 !
 ! A1    A(2,1,3)              121.7952         -DE/DX =    0.0                 !
 ! A2    A(2,1,4)              121.7952         -DE/DX =    0.0                 !
 ! A3    A(3,1,4)              116.4096         -DE/DX =   -0.0001              !
 ! A4    A(1,2,5)              121.7952         -DE/DX =    0.0                 !
 ! A5    A(1,2,6)              121.7952         -DE/DX =    0.0                 !
 ! A6    A(5,2,6)              116.4096         -DE/DX =   -0.0001              !
 ! D1    D(3,1,2,5)            180.0            -DE/DX =    0.0                 !
 ! D2    D(3,1,2,6)              0.0            -DE/DX =    0.0                 !
 ! D3    D(4,1,2,5)              0.0            -DE/DX =    0.0                 !
 ! D4    D(4,1,2,6)            180.0            -DE/DX =    0.0                 !
 --------------------------------------------------------------------------------
 Lowest energy point so far.  Saving SCF results.
 Largest change from initial coordinates is atom    3       0.012 Angstoms.
 GradGradGradGradGradGradGradGradGradGradGradGradGradGradGradGradGradGrad

 Leave Link  103 at Tue Dec 14 13:38:53 2021, MaxMem=  1610612736 cpu:               2.5 elap:               0.4
 (Enter /usr/local/g16reva03/legacy_cpu/g16/l202.exe)
                          Input orientation:                          
 ---------------------------------------------------------------------
 Center     Atomic      Atomic             Coordinates (Angstroms)
 Number     Number       Type             X           Y           Z
 ---------------------------------------------------------------------
      1          6           0        0.000000   -0.000000   -0.003510
      2          6           0       -0.000000    0.000000    1.313510
      3          1           0        0.914545   -0.000000   -0.570446
      4          1           0       -0.914545   -0.000000   -0.570446
      5          1           0       -0.914545    0.000000    1.880446
      6          1           0        0.914545    0.000000    1.880446
 ---------------------------------------------------------------------
                    Distance matrix (angstroms):
                    1          2          3          4          5
     1  C    0.000000
     2  C    1.317021   0.000000
     3  H    1.076015   2.094203   0.000000
     4  H    1.076015   2.094203   1.829089   0.000000
     5  H    2.094203   1.076015   3.058176   2.450893   0.000000
     6  H    2.094203   1.076015   2.450893   3.058176   1.829089
                    6
     6  H    0.000000
 Stoichiometry    C2H4
 Framework group  D2H[C2"(C.C),SG(H4)]
 Deg. of freedom     3
 Full point group                 D2H     NOp   8
 RotChk:  IX=0 Diff= 1.16D-15
 Largest Abelian subgroup         D2H     NOp   8
 Largest concise Abelian subgroup D2      NOp   4
                         Standard orientation:                         
 ---------------------------------------------------------------------
 Center     Atomic      Atomic             Coordinates (Angstroms)
 Number     Number       Type             X           Y           Z
 ---------------------------------------------------------------------
      1          6           0        0.000000    0.000000    0.658510
      2          6           0        0.000000   -0.000000   -0.658510
      3          1           0        0.000000    0.914545    1.225446
      4          1           0       -0.000000   -0.914545    1.225446
      5          1           0       -0.000000   -0.914545   -1.225446
      6          1           0        0.000000    0.914545   -1.225446
 ---------------------------------------------------------------------
 Rotational constants (GHZ):         149.8864213          30.7013315          25.4818648
 Leave Link  202 at Tue Dec 14 13:38:54 2021, MaxMem=  1610612736 cpu:               0.2 elap:               0.1
 (Enter /usr/local/g16reva03/legacy_cpu/g16/l601.exe)
 Copying SCF densities to generalized density rwf, IOpCl= 0 IROHF=0.

 **********************************************************************

            Population analysis using the SCF density.

 **********************************************************************

 Orbital symmetries:
       Occupied  (AG) (B1U) (AG) (B1U) (B2U) (AG) (B3G) (B3U)
       Virtual   (B2G) (AG) (B2U) (B1U) (B3G) (B1U) (AG) (B2U)
                 (B3U) (AG) (B2G) (B1U) (B2U) (B3G) (AG) (B1U)
                 (B1U) (B3G) (B3U) (B1G) (AU) (AG) (B2U) (AG) (B1U)
                 (B2G) (B3G) (B1U) (AG) (B1U)
 The electronic state is 1-AG.
 Alpha  occ. eigenvalues --  -11.22432 -11.22252  -1.03314  -0.78953  -0.64073
 Alpha  occ. eigenvalues --   -0.58641  -0.50201  -0.37436
 Alpha virt. eigenvalues --    0.18390   0.26676   0.29316   0.31116   0.39303
 Alpha virt. eigenvalues --    0.49561   0.66184   0.76810   0.77267   0.85232
 Alpha virt. eigenvalues --    0.89375   0.96625   1.11004   1.16371   1.21209
 Alpha virt. eigenvalues --    1.22135   1.34403   1.48597   1.74783   1.81519
 Alpha virt. eigenvalues --    2.13735   2.20075   2.33991   2.41947   2.63931
 Alpha virt. eigenvalues --    2.73142   3.08462   3.08881   4.53175   4.67324
          Condensed to atoms (all electrons):
               1          2          3          4          5          6
     1  C    4.991268   0.645589   0.397951   0.397951  -0.040002  -0.040002
     2  C    0.645589   4.991268  -0.040002  -0.040002   0.397951   0.397951
     3  H    0.397951  -0.040002   0.495275  -0.028893   0.003084  -0.003791
     4  H    0.397951  -0.040002  -0.028893   0.495275  -0.003791   0.003084
     5  H   -0.040002   0.397951   0.003084  -0.003791   0.495275  -0.028893
     6  H   -0.040002   0.397951  -0.003791   0.003084  -0.028893   0.495275
 Mulliken charges:
               1
     1  C   -0.352753
     2  C   -0.352753
     3  H    0.176377
     4  H    0.176377
     5  H    0.176377
     6  H    0.176377
 Sum of Mulliken charges =  -0.00000
 Mulliken charges with hydrogens summed into heavy atoms:
               1
     1  C   -0.000000
     2  C   -0.000000
 Electronic spatial extent (au):  <R**2>=             81.4194
 Charge=              0.0000 electrons
 Dipole moment (field-independent basis, Debye):
    X=             -0.0000    Y=             -0.0000    Z=             -0.0000  Tot=              0.0000
 Quadrupole moment (field-independent basis, Debye-Ang):
   XX=            -15.3755   YY=            -12.2357   ZZ=            -11.9848
   XY=              0.0000   XZ=             -0.0000   YZ=             -0.0000
 Traceless Quadrupole moment (field-independent basis, Debye-Ang):
   XX=             -2.1769   YY=              0.9630   ZZ=              1.2139
   XY=              0.0000   XZ=             -0.0000   YZ=             -0.0000
 Octapole moment (field-independent basis, Debye-Ang**2):
  XXX=             -0.0000  YYY=             -0.0000  ZZZ=             -0.0000  XYY=             -0.0000
  XXY=             -0.0000  XXZ=             -0.0000  XZZ=             -0.0000  YZZ=             -0.0000
  YYZ=              0.0000  XYZ=             -0.0000
 Hexadecapole moment (field-independent basis, Debye-Ang**3):
 XXXX=            -16.4417 YYYY=            -25.5693 ZZZZ=            -65.1622 XXXY=             -0.0000
 XXXZ=              0.0000 YYYX=             -0.0000 YYYZ=             -0.0000 ZZZX=              0.0000
 ZZZY=             -0.0000 XXYY=             -7.6121 XXZZ=            -14.5433 YYZZ=            -12.7829
 XXYZ=              0.0000 YYXZ=              0.0000 ZZXY=              0.0000
 N-N= 3.368879913425D+01 E-N=-2.486773057939D+02  KE= 7.798231433487D+01
 Symmetry AG   KE= 3.756448809146D+01
 Symmetry B1G  KE= 3.747389305914D-34
 Symmetry B2G  KE= 4.321995418920D-33
 Symmetry B3G  KE= 2.097688298629D+00
 Symmetry AU   KE= 4.383967501716D-34
 Symmetry B1U  KE= 3.450780001441D+01
 Symmetry B2U  KE= 1.858462765149D+00
 Symmetry B3U  KE= 1.953875165227D+00
 No NMR shielding tensors so no spin-rotation constants.
 Leave Link  601 at Tue Dec 14 13:38:54 2021, MaxMem=  1610612736 cpu:               1.3 elap:               0.2
 (Enter /usr/local/g16reva03/legacy_cpu/g16/l9999.exe)
 B after Tr=    -0.000000    0.000000    0.000000
         Rot=    1.000000   -0.000000   -0.000000    0.000000 Ang=   0.00 deg.
 Final structure in terms of initial Z-matrix:
 C
 C,1,CC
 H,1,CH,2,HCC
 H,1,CH,2,HCC,3,180.,0
 H,2,CH,1,HCC,3,180.,0
 H,2,CH,1,HCC,4,180.,0
      Variables:
      Constants:
 CC=1.31702082
 CH=1.07601501
 HCC=121.79521973

 Test job not archived.
 1\1\GINC-NODE137\FOpt\RHF\6-31G(d)\C2H4\ROOT\14-Dec-2021\0\\#P rhf/6-3
 1g(d) test opt\\Etheylene Optimization using parameters in gaussian bo
 ok pg 42\\0,1\C,0.,0.,-0.0035104083\C,0.,0.,1.3135104083\H,0.914544595
 ,0.,-0.5704464521\H,-0.914544595,0.,-0.5704464521\H,-0.914544595,0.,1.
 8804464521\H,0.914544595,0.,1.8804464521\\Version=EM64L-G16RevA.03\Sta
 te=1-AG\HF=-78.0317181\RMSD=7.215e-09\RMSF=6.056e-05\Dipole=0.,0.,0.\Q
 uadrupole=0.7159443,-1.6184359,0.9024916,0.,0.,0.\PG=D02H [C2"(C1.C1),
 SG(H4)]\\@


 THERE IS AN OLD, OLD RECIPE IN MAINE FOR STEWING COOT. PLACE THE
 BIRD IN A KETTLE OF WATER WITH A RED BUILDING BRICK FREE OF MORTAR AND
 BLEMISHES. PARBOIL THE COOT AND BRICK TOGETHER FOR THREE HOURS.
 POUR OFF THE WATER, REFILL THE KETTLE, AND AGAIN PARBOIL FOR THREE HOURS.
 ONCE AGAIN POUR OFF THE WATER, FOR THE LAST TIME ADD FRESH WATER,
 AND LET THE COOT AND BRICK SIMMER TOGETHER OVERNIGHT. IN THE MORNING,
 THROW AWAY THE COOT AND EAT THE BRICK.
 Job cpu time:       0 days  0 hours  0 minutes 47.9 seconds.
 Elapsed time:       0 days  0 hours  0 minutes  7.5 seconds.
 File lengths (MBytes):  RWF=     72 Int=      0 D2E=      0 Chk=      8 Scr=      8
 Normal termination of Gaussian 16 at Tue Dec 14 13:38:54 2021.
