************************************************************
This is node180 of the Cardinal research cluster.
Date: Wed Dec 15 11:02:29 EST 2021
************************************************************
 Set GAUSS_MDEF to "12GB".
 Set GAUSS_PDEF to "8".
 Entering Gaussian System, Link 0=g16
 Initial command:
 /usr/local/g16reva03/legacy_cpu/g16/l1.exe "/scratch/global/amkiny01/Gau-24837.inp" -scrdir="/scratch/global/amkiny01/"
 Default is to use a total of   8 processors:
                                8 via shared-memory
                                1 via Linda
 Entering Link 1 = /usr/local/g16reva03/legacy_cpu/g16/l1.exe PID=     24838.
  
 Copyright (c) 1988,1990,1992,1993,1995,1998,2003,2009,2016,
            Gaussian, Inc.  All Rights Reserved.
  
 This is part of the Gaussian(R) 16 program.  It is based on
 the Gaussian(R) 09 system (copyright 2009, Gaussian, Inc.),
 the Gaussian(R) 03 system (copyright 2003, Gaussian, Inc.),
 the Gaussian(R) 98 system (copyright 1998, Gaussian, Inc.),
 the Gaussian(R) 94 system (copyright 1995, Gaussian, Inc.),
 the Gaussian 92(TM) system (copyright 1992, Gaussian, Inc.),
 the Gaussian 90(TM) system (copyright 1990, Gaussian, Inc.),
 the Gaussian 88(TM) system (copyright 1988, Gaussian, Inc.),
 the Gaussian 86(TM) system (copyright 1986, Carnegie Mellon
 University), and the Gaussian 82(TM) system (copyright 1983,
 Carnegie Mellon University). Gaussian is a federally registered
 trademark of Gaussian, Inc.
  
 This software contains proprietary and confidential information,
 including trade secrets, belonging to Gaussian, Inc.
  
 This software is provided under written license and may be
 used, copied, transmitted, or stored only in accord with that
 written license.
  
 The following legend is applicable only to US Government
 contracts under FAR:
  
                    RESTRICTED RIGHTS LEGEND
  
 Use, reproduction and disclosure by the US Government is
 subject to restrictions as set forth in subparagraphs (a)
 and (c) of the Commercial Computer Software - Restricted
 Rights clause in FAR 52.227-19.
  
 Gaussian, Inc.
 340 Quinnipiac St., Bldg. 40, Wallingford CT 06492
  
  
 ---------------------------------------------------------------
 Warning -- This program may not be used in any manner that
 competes with the business of Gaussian, Inc. or will provide
 assistance to any competitor of Gaussian, Inc.  The licensee
 of this program is prohibited from giving any competitor of
 Gaussian, Inc. access to this program.  By using this program,
 the user acknowledges that Gaussian, Inc. is engaged in the
 business of creating and licensing software in the field of
 computational chemistry and represents and warrants to the
 licensee that it is not a competitor of Gaussian, Inc. and that
 it will not use this program in any manner prohibited above.
 ---------------------------------------------------------------
  

 Cite this work as:
 Gaussian 16, Revision A.03,
 M. J. Frisch, G. W. Trucks, H. B. Schlegel, G. E. Scuseria, 
 M. A. Robb, J. R. Cheeseman, G. Scalmani, V. Barone, 
 G. A. Petersson, H. Nakatsuji, X. Li, M. Caricato, A. V. Marenich, 
 J. Bloino, B. G. Janesko, R. Gomperts, B. Mennucci, H. P. Hratchian, 
 J. V. Ortiz, A. F. Izmaylov, J. L. Sonnenberg, D. Williams-Young, 
 F. Ding, F. Lipparini, F. Egidi, J. Goings, B. Peng, A. Petrone, 
 T. Henderson, D. Ranasinghe, V. G. Zakrzewski, J. Gao, N. Rega, 
 G. Zheng, W. Liang, M. Hada, M. Ehara, K. Toyota, R. Fukuda, 
 J. Hasegawa, M. Ishida, T. Nakajima, Y. Honda, O. Kitao, H. Nakai, 
 T. Vreven, K. Throssell, J. A. Montgomery, Jr., J. E. Peralta, 
 F. Ogliaro, M. J. Bearpark, J. J. Heyd, E. N. Brothers, K. N. Kudin, 
 V. N. Staroverov, T. A. Keith, R. Kobayashi, J. Normand, 
 K. Raghavachari, A. P. Rendell, J. C. Burant, S. S. Iyengar, 
 J. Tomasi, M. Cossi, J. M. Millam, M. Klene, C. Adamo, R. Cammi, 
 J. W. Ochterski, R. L. Martin, K. Morokuma, O. Farkas, 
 J. B. Foresman, and D. J. Fox, Gaussian, Inc., Wallingford CT, 2016.
 
 ******************************************
 Gaussian 16:  EM64L-G16RevA.03 25-Dec-2016
                15-Dec-2021 
 ******************************************
 %chk=propene_180.chk
 -----------------------------------
 # opt hf/6-31g(d) geom=connectivity
 -----------------------------------
 1/18=20,19=15,38=1,57=2/1,3;
 2/9=110,12=2,17=6,18=5,40=1/2;
 3/5=1,6=6,7=1,11=9,25=1,30=1,71=1/1,2,3;
 4//1;
 5/5=2,38=5/2;
 6/7=2,8=2,9=2,10=2,28=1/1;
 7//1,2,3,16;
 1/18=20,19=15/3(2);
 2/9=110/2;
 99//99;
 2/9=110/2;
 3/5=1,6=6,7=1,11=9,25=1,30=1,71=1/1,2,3;
 4/5=5,16=3,69=1/1;
 5/5=2,38=5/2;
 7//1,2,3,16;
 1/18=20,19=15/3(-5);
 2/9=110/2;
 6/7=2,8=2,9=2,10=2,19=2,28=1/1;
 99/9=1/99;
 -------------------
 Title Card Required
 -------------------
 Symbolic Z-matrix:
 Charge =  0 Multiplicity = 1
 C
 H                    1    B1
 C                    1    B2       2    A1
 H                    3    B3       1    A2       2    D1       0
 H                    3    B4       1    A3       2    D2       0
 C                    1    B5       3    A4       5    D3       0
 H                    6    B6       1    A5       3    D4       0
 H                    6    B7       1    A6       3    D5       0
 H                    6    B8       3    A7       1    D6       0
       Variables:
  B1                    1.07                     
  B2                    1.3552                   
  B3                    1.07                     
  B4                    1.07                     
  B5                    1.54                     
  B6                    1.07                     
  B7                    1.07                     
  B8                    1.07                     
  A1                  119.88653                  
  A2                  120.22695                  
  A3                  119.88653                  
  A4                  120.22695                  
  A5                   89.99999                  
  A6                   89.99999                  
  A7                    0.                       
  D1                    0.                       
  D2                  180.                       
  D3                    0.                       
  D4                 -174.74673                  
  D5                  -65.27547                  
  D6                 -180.                       
 

 GradGradGradGradGradGradGradGradGradGradGradGradGradGradGradGradGradGrad
 Berny optimization.
 Initialization pass.
                           ----------------------------
                           !    Initial Parameters    !
                           ! (Angstroms and Degrees)  !
 --------------------------                            --------------------------
 ! Name  Definition              Value          Derivative Info.                !
 --------------------------------------------------------------------------------
 ! R1    R(1,2)                  1.07           estimate D2E/DX2                !
 ! R2    R(1,3)                  1.3552         estimate D2E/DX2                !
 ! R3    R(1,6)                  1.54           estimate D2E/DX2                !
 ! R4    R(3,4)                  1.07           estimate D2E/DX2                !
 ! R5    R(3,5)                  1.07           estimate D2E/DX2                !
 ! R6    R(6,7)                  1.07           estimate D2E/DX2                !
 ! R7    R(6,8)                  1.07           estimate D2E/DX2                !
 ! R8    R(6,9)                  1.07           estimate D2E/DX2                !
 ! A1    A(2,1,3)              119.8865         estimate D2E/DX2                !
 ! A2    A(2,1,6)              119.8865         estimate D2E/DX2                !
 ! A3    A(3,1,6)              120.2269         estimate D2E/DX2                !
 ! A4    A(1,3,4)              120.2269         estimate D2E/DX2                !
 ! A5    A(1,3,5)              119.8865         estimate D2E/DX2                !
 ! A6    A(4,3,5)              119.8865         estimate D2E/DX2                !
 ! A7    A(1,6,7)               90.0            estimate D2E/DX2                !
 ! A8    A(1,6,8)               90.0            estimate D2E/DX2                !
 ! A9    A(1,6,9)               27.7856         estimate D2E/DX2                !
 ! A10   A(7,6,8)              109.4713         estimate D2E/DX2                !
 ! A11   A(7,6,9)              117.6589         estimate D2E/DX2                !
 ! A12   A(8,6,9)               78.7567         estimate D2E/DX2                !
 ! D1    D(2,1,3,4)              0.0            estimate D2E/DX2                !
 ! D2    D(2,1,3,5)            180.0            estimate D2E/DX2                !
 ! D3    D(6,1,3,4)            180.0            estimate D2E/DX2                !
 ! D4    D(6,1,3,5)              0.0            estimate D2E/DX2                !
 ! D5    D(2,1,6,7)              5.2533         estimate D2E/DX2                !
 ! D6    D(2,1,6,8)            114.7245         estimate D2E/DX2                !
 ! D7    D(2,1,6,9)            180.0            estimate D2E/DX2                !
 ! D8    D(3,1,6,7)           -174.7467         estimate D2E/DX2                !
 ! D9    D(3,1,6,8)            -65.2755         estimate D2E/DX2                !
 ! D10   D(3,1,6,9)              0.0            estimate D2E/DX2                !
 --------------------------------------------------------------------------------
 Trust Radius=3.00D-01 FncErr=1.00D-07 GrdErr=1.00D-07 EigMax=2.50D+02 EigMin=1.00D-04
 Number of steps in this run=     40 maximum allowed number of steps=    100.
 GradGradGradGradGradGradGradGradGradGradGradGradGradGradGradGradGradGrad

                          Input orientation:                          
 ---------------------------------------------------------------------
 Center     Atomic      Atomic             Coordinates (Angstroms)
 Number     Number       Type             X           Y           Z
 ---------------------------------------------------------------------
      1          6           0        0.000000    0.000000    0.000000
      2          1           0        0.000000    0.000000    1.070000
      3          6           0        1.174977    0.000000   -0.675274
      4          1           0        2.102682    0.000000   -0.142111
      5          1           0        1.174977    0.000000   -1.745274
      6          6           0       -1.335201    0.000000   -0.767357
      7          1           0       -1.866126    0.097968    0.156451
      8          1           0       -1.112202    0.971912   -1.155375
      9          1           0       -0.265921    0.000000   -0.728132
 ---------------------------------------------------------------------
                    Distance matrix (angstroms):
                    1          2          3          4          5
     1  C    0.000000
     2  H    1.070000   0.000000
     3  C    1.355200   2.103938   0.000000
     4  H    2.107479   2.427032   1.070000   0.000000
     5  H    2.103938   3.050630   1.070000   1.852234   0.000000
     6  C    1.540000   2.271265   2.511867   3.494278   2.693941
     7  H    1.875233   2.080047   3.154310   3.981228   3.588100
     8  H    1.875233   2.670937   2.531067   3.508105   2.554170
     9  H    0.775171   1.817689   1.441867   2.440021   1.763736
                    6          7          8          9
     6  C    0.000000
     7  H    1.070000   0.000000
     8  H    1.070000   1.747303   0.000000
     9  H    1.070000   1.831049   1.357698   0.000000
 Stoichiometry    C3H6
 Framework group  C1[X(C3H6)]
 Deg. of freedom    21
 Full point group                 C1      NOp   1
 Largest Abelian subgroup         C1      NOp   1
 Largest concise Abelian subgroup C1      NOp   1
                         Standard orientation:                         
 ---------------------------------------------------------------------
 Center     Atomic      Atomic             Coordinates (Angstroms)
 Number     Number       Type             X           Y           Z
 ---------------------------------------------------------------------
      1          6           0       -0.036714    0.468951    0.002462
      2          1           0       -0.027992    1.533901    0.105932
      3          6           0       -1.216100   -0.198430   -0.012318
      4          1           0       -2.138593    0.335933    0.079126
      5          1           0       -1.224822   -1.263380   -0.115788
      6          6           0        1.290987   -0.300132   -0.129149
      7          1           0        1.833101    0.607690    0.034774
      8          1           0        1.106247   -0.779663    0.809371
      9          1           0        0.223023   -0.256810   -0.079382
 ---------------------------------------------------------------------
 Rotational constants (GHZ):          49.6442443          10.2186996           8.7264542
 Standard basis: 6-31G(d) (6D, 7F)
 There are    57 symmetry adapted cartesian basis functions of A   symmetry.
 There are    57 symmetry adapted basis functions of A   symmetry.
    57 basis functions,   108 primitive gaussians,    57 cartesian basis functions
    12 alpha electrons       12 beta electrons
       nuclear repulsion energy        75.3289461715 Hartrees.
 NAtoms=    9 NActive=    9 NUniq=    9 SFac= 1.00D+00 NAtFMM=   60 NAOKFM=F Big=F
 Integral buffers will be    131072 words long.
 Raffenetti 1 integral format.
 Two-electron integral symmetry is turned on.
 One-electron integrals computed using PRISM.
 NBasis=    57 RedAO= T EigKep=  1.79D-03  NBF=    57
 NBsUse=    57 1.00D-06 EigRej= -1.00D+00 NBFU=    57
 ExpMin= 1.61D-01 ExpMax= 3.05D+03 ExpMxC= 4.57D+02 IAcc=3 IRadAn=         5 AccDes= 0.00D+00
 Harris functional with IExCor=  205 and IRadAn=       5 diagonalized for initial guess.
 HarFok:  IExCor=  205 AccDes= 0.00D+00 IRadAn=         5 IDoV= 1 UseB2=F ITyADJ=14
 ICtDFT=  3500011 ScaDFX=  1.000000  1.000000  1.000000  1.000000
 FoFCou: FMM=F IPFlag=           0 FMFlag=      100000 FMFlg1=           0
         NFxFlg=           0 DoJE=T BraDBF=F KetDBF=T FulRan=T
         wScrn=  0.000000 ICntrl=       500 IOpCl=  0 I1Cent=   200000004 NGrid=           0
         NMat0=    1 NMatS0=      1 NMatT0=    0 NMatD0=    1 NMtDS0=    0 NMtDT0=    0
 Petite list used in FoFCou.
 Keep R1 ints in memory in canonical form, NReq=3043259.
 Requested convergence on RMS density matrix=1.00D-08 within 128 cycles.
 Requested convergence on MAX density matrix=1.00D-06.
 Requested convergence on             energy=1.00D-06.
 No special actions if energy rises.
 SCF Done:  E(RHF) =  -116.630354474     A.U. after   13 cycles
            NFock= 13  Conv=0.52D-08     -V/T= 1.9892

 **********************************************************************

            Population analysis using the SCF density.

 **********************************************************************

 Orbital symmetries:
       Occupied  (A) (A) (A) (A) (A) (A) (A) (A) (A) (A) (A) (A)
       Virtual   (A) (A) (A) (A) (A) (A) (A) (A) (A) (A) (A) (A)
                 (A) (A) (A) (A) (A) (A) (A) (A) (A) (A) (A) (A)
                 (A) (A) (A) (A) (A) (A) (A) (A) (A) (A) (A) (A)
                 (A) (A) (A) (A) (A) (A) (A) (A) (A)
 The electronic state is 1-A.
 Alpha  occ. eigenvalues --  -11.29178 -11.24803 -11.20372  -1.28630  -0.96477
 Alpha  occ. eigenvalues --   -0.79443  -0.75271  -0.60110  -0.56565  -0.54228
 Alpha  occ. eigenvalues --   -0.44393  -0.30354
 Alpha virt. eigenvalues --    0.14556   0.20748   0.27392   0.29074   0.31290
 Alpha virt. eigenvalues --    0.35241   0.37579   0.46545   0.51927   0.67655
 Alpha virt. eigenvalues --    0.73835   0.77599   0.81074   0.82585   0.85678
 Alpha virt. eigenvalues --    0.88016   0.97114   1.00446   1.10587   1.14450
 Alpha virt. eigenvalues --    1.20400   1.22655   1.24660   1.28553   1.44858
 Alpha virt. eigenvalues --    1.48638   1.59616   1.69285   1.76657   1.96613
 Alpha virt. eigenvalues --    2.08132   2.16436   2.24849   2.40798   2.45154
 Alpha virt. eigenvalues --    2.55341   2.65541   2.68436   2.75396   3.03425
 Alpha virt. eigenvalues --    3.04875   3.52477   4.53752   4.65536   4.75392
          Condensed to atoms (all electrons):
               1          2          3          4          5          6
     1  C    5.310561   0.366516   0.631833  -0.034489  -0.056862   0.033645
     2  H    0.366516   0.421351  -0.037733  -0.003150   0.002430  -0.025544
     3  C    0.631833  -0.037733   5.278802   0.394116   0.391468  -0.071241
     4  H   -0.034489  -0.003150   0.394116   0.452700  -0.018876   0.001554
     5  H   -0.056862   0.002430   0.391468  -0.018876   0.445407   0.002059
     6  C    0.033645  -0.025544  -0.071241   0.001554   0.002059   5.504504
     7  H    0.000619  -0.020599   0.012928  -0.000154  -0.000169   0.414925
     8  H   -0.062593   0.004455  -0.013534  -0.000440   0.001010   0.425316
     9  H   -0.027947   0.013790  -0.107235   0.001854   0.013440   0.214921
               7          8          9
     1  C    0.000619  -0.062593  -0.027947
     2  H   -0.020599   0.004455   0.013790
     3  C    0.012928  -0.013534  -0.107235
     4  H   -0.000154  -0.000440   0.001854
     5  H   -0.000169   0.001010   0.013440
     6  C    0.414925   0.425316   0.214921
     7  H    0.541445  -0.037700  -0.078979
     8  H   -0.037700   0.570839  -0.029153
     9  H   -0.078979  -0.029153   0.873426
 Mulliken charges:
               1
     1  C   -0.161283
     2  H    0.278483
     3  C   -0.479405
     4  H    0.206884
     5  H    0.220093
     6  C   -0.500140
     7  H    0.167684
     8  H    0.141801
     9  H    0.125884
 Sum of Mulliken charges =   0.00000
 Mulliken charges with hydrogens summed into heavy atoms:
               1
     1  C    0.243084
     3  C   -0.052428
     6  C   -0.190656
 Electronic spatial extent (au):  <R**2>=            181.4449
 Charge=              0.0000 electrons
 Dipole moment (field-independent basis, Debye):
    X=             -1.9244    Y=              1.8088    Z=              1.5187  Tot=              3.0465
 Quadrupole moment (field-independent basis, Debye-Ang):
   XX=            -21.9530   YY=            -18.3176   ZZ=            -23.2488
   XY=              2.5835   XZ=              2.0760   YZ=             -0.9273
 Traceless Quadrupole moment (field-independent basis, Debye-Ang):
   XX=             -0.7799   YY=              2.8556   ZZ=             -2.0757
   XY=              2.5835   XZ=              2.0760   YZ=             -0.9273
 Octapole moment (field-independent basis, Debye-Ang**2):
  XXX=             -9.3391  YYY=              5.1941  ZZZ=              2.4248  XYY=             -3.0505
  XXY=              4.3837  XXZ=              3.7767  XZZ=             -1.3964  YZZ=              0.9081
  YYZ=              1.5854  XYZ=             -1.9435
 Hexadecapole moment (field-independent basis, Debye-Ang**3):
 XXXX=           -168.5876 YYYY=            -45.2237 ZZZZ=            -29.1715 XXXY=              5.6999
 XXXZ=              6.1425 YYYX=              5.7111 YYYZ=             -0.5450 ZZZX=              3.2798
 ZZZY=             -1.5702 XXYY=            -37.1977 XXZZ=            -38.6435 YYZZ=            -14.1186
 XXYZ=             -1.9118 YYXZ=              1.9335 ZZXY=              1.5483
 N-N= 7.532894617147D+01 E-N=-4.218300069322D+02  KE= 1.179079096662D+02
 Calling FoFJK, ICntrl=      2127 FMM=F ISym2X=0 I1Cent= 0 IOpClX= 0 NMat=1 NMatS=1 NMatT=0.
 ***** Axes restored to original set *****
 -------------------------------------------------------------------
 Center     Atomic                   Forces (Hartrees/Bohr)
 Number     Number              X              Y              Z
 -------------------------------------------------------------------
      1        6           0.343823512   -0.008888059    0.543489179
      2        1          -0.010452134   -0.004524490   -0.007178605
      3        6           0.008688888   -0.001690633    0.047292466
      4        1           0.004623849    0.002233051   -0.002025200
      5        1           0.001998361   -0.001471084   -0.003132307
      6        6          -0.100472552    0.023211473   -0.006197737
      7        1          -0.019036331    0.000564536   -0.008407646
      8        1          -0.045225901    0.020400329   -0.020778714
      9        1          -0.183947692   -0.029835123   -0.543061438
 -------------------------------------------------------------------
 Cartesian Forces:  Max     0.543489179 RMS     0.167758418

 GradGradGradGradGradGradGradGradGradGradGradGradGradGradGradGradGradGrad
 Berny optimization.
 FormGI is forming the generalized inverse of G from B-inverse, IUseBI=4.
 Internal  Forces:  Max     0.689495744 RMS     0.196035862
 Search for a local minimum.
 Step number   1 out of a maximum of   40
 All quantities printed in internal units (Hartrees-Bohrs-Radians)
 Mixed Optimization -- RFO/linear search
 Second derivative matrix not updated -- first step.
 ITU=  0
     Eigenvalues ---    0.00237   0.01215   0.01323   0.02681   0.02681
     Eigenvalues ---    0.08219   0.16000   0.16000   0.16000   0.16000
     Eigenvalues ---    0.16000   0.16000   0.22000   0.28519   0.37230
     Eigenvalues ---    0.37230   0.37230   0.37230   0.37230   0.37230
     Eigenvalues ---    0.53930
 RFO step:  Lambda=-9.77331901D-01 EMin= 2.36824211D-03
 Linear search not attempted -- first point.
 Maximum step size (   0.300) exceeded in Quadratic search.
    -- Step size scaled by   0.330
 Iteration  1 RMS(Cart)=  0.10081134 RMS(Int)=  0.00875955
 Iteration  2 RMS(Cart)=  0.00856534 RMS(Int)=  0.00044481
 Iteration  3 RMS(Cart)=  0.00000432 RMS(Int)=  0.00044479
 Iteration  4 RMS(Cart)=  0.00000000 RMS(Int)=  0.00044479
 Variable       Old X    -DE/DX   Delta X   Delta X   Delta X     New X
                                 (Linear)    (Quad)   (Total)
    R1        2.02201  -0.00718   0.00000  -0.00175  -0.00175   2.02025
    R2        2.56096  -0.00772   0.00000  -0.00168  -0.00168   2.55928
    R3        2.91018   0.59054   0.00000   0.15412   0.15412   3.06430
    R4        2.02201   0.00300   0.00000   0.00073   0.00073   2.02274
    R5        2.02201   0.00313   0.00000   0.00076   0.00076   2.02277
    R6        2.02201   0.00224   0.00000   0.00055   0.00055   2.02255
    R7        2.02201   0.01664   0.00000   0.00406   0.00406   2.02607
    R8        2.02201  -0.20373   0.00000  -0.04974  -0.04974   1.97227
    A1        2.09241  -0.02926   0.00000  -0.00790  -0.00790   2.08451
    A2        2.09241  -0.05040   0.00000  -0.01402  -0.01402   2.07839
    A3        2.09836   0.07966   0.00000   0.02192   0.02192   2.12028
    A4        2.09836   0.00413   0.00000   0.00120   0.00120   2.09955
    A5        2.09241  -0.00004   0.00000  -0.00001  -0.00001   2.09240
    A6        2.09241  -0.00408   0.00000  -0.00118  -0.00118   2.09123
    A7        1.57080  -0.32253   0.00000  -0.09351  -0.09361   1.47719
    A8        1.57080   0.17520   0.00000   0.05042   0.04964   1.62044
    A9        0.48495   0.68950   0.00000   0.19983   0.19999   0.68494
   A10        1.91063  -0.01994   0.00000  -0.00616  -0.00456   1.90608
   A11        2.05354   0.36480   0.00000   0.10576   0.10589   2.15942
   A12        1.37456  -0.08312   0.00000  -0.02371  -0.02290   1.35166
    D1       -0.00000  -0.00256   0.00000  -0.00084  -0.00084  -0.00084
    D2        3.14159  -0.00190   0.00000  -0.00063  -0.00063   3.14097
    D3        3.14159  -0.00134   0.00000  -0.00044  -0.00044   3.14116
    D4       -0.00000  -0.00068   0.00000  -0.00022  -0.00022  -0.00022
    D5        0.09169  -0.00021   0.00000  -0.00029   0.00051   0.09220
    D6        2.00232  -0.02014   0.00000  -0.00646  -0.00702   1.99530
    D7        3.14159   0.02382   0.00000   0.00791   0.00767  -3.13392
    D8       -3.04991  -0.00142   0.00000  -0.00070   0.00011  -3.04980
    D9       -1.13927  -0.02136   0.00000  -0.00686  -0.00742  -1.14670
   D10        0.00000   0.02260   0.00000   0.00751   0.00727   0.00727
         Item               Value     Threshold  Converged?
 Maximum Force            0.689496     0.000450     NO 
 RMS     Force            0.196036     0.000300     NO 
 Maximum Displacement     0.411730     0.001800     NO 
 RMS     Displacement     0.102054     0.001200     NO 
 Predicted change in Energy=-3.130221D-01
 GradGradGradGradGradGradGradGradGradGradGradGradGradGradGradGradGradGrad

                          Input orientation:                          
 ---------------------------------------------------------------------
 Center     Atomic      Atomic             Coordinates (Angstroms)
 Number     Number       Type             X           Y           Z
 ---------------------------------------------------------------------
      1          6           0        0.032396   -0.001333    0.026780
      2          1           0        0.031076   -0.004364    1.095848
      3          6           0        1.212694   -0.007180   -0.637318
      4          1           0        2.136456   -0.013992   -0.096627
      5          1           0        1.222454   -0.004782   -1.707675
      6          6           0       -1.383709    0.009633   -0.763144
      7          1           0       -1.812640    0.107609    0.212529
      8          1           0       -1.209307    0.985528   -1.171456
      9          1           0       -0.356233   -0.001239   -0.946010
 ---------------------------------------------------------------------
                    Distance matrix (angstroms):
                    1          2          3          4          5
     1  C    0.000000
     2  H    1.069073   0.000000
     3  C    1.354312   2.097639   0.000000
     4  H    2.107714   2.419651   1.070388   0.000000
     5  H    2.103470   3.046165   1.070405   1.852285   0.000000
     6  C    1.621559   2.336164   2.599504   3.582787   2.772081
     7  H    1.857560   2.047457   3.144528   3.963045   3.593273
     8  H    1.987835   2.767508   2.671490   3.653550   2.679871
     9  H    1.047546   2.078269   1.599017   2.633460   1.752826
                    6          7          8          9
     6  C    0.000000
     7  H    1.070289   0.000000
     8  H    1.072150   1.746472   0.000000
     9  H    1.043679   1.864184   1.323734   0.000000
 Stoichiometry    C3H6
 Framework group  C1[X(C3H6)]
 Deg. of freedom    21
 Full point group                 C1      NOp   1
 Largest Abelian subgroup         C1      NOp   1
 Largest concise Abelian subgroup C1      NOp   1
                         Standard orientation:                         
 ---------------------------------------------------------------------
 Center     Atomic      Atomic             Coordinates (Angstroms)
 Number     Number       Type             X           Y           Z
 ---------------------------------------------------------------------
      1          6           0       -0.078303    0.479531    0.002696
      2          1           0       -0.098379    1.543898    0.100855
      3          6           0       -1.243971   -0.209848   -0.009071
      4          1           0       -2.177466    0.306290    0.079916
      5          1           0       -1.232329   -1.275647   -0.107575
      6          6           0        1.351974   -0.272986   -0.129513
      7          1           0        1.765822    0.699457    0.039610
      8          1           0        1.235061   -0.775002    0.810602
      9          1           0        0.329089   -0.479173   -0.108078
 ---------------------------------------------------------------------
 Rotational constants (GHZ):          48.1186486           9.6102126           8.2367497
 Standard basis: 6-31G(d) (6D, 7F)
 There are    57 symmetry adapted cartesian basis functions of A   symmetry.
 There are    57 symmetry adapted basis functions of A   symmetry.
    57 basis functions,   108 primitive gaussians,    57 cartesian basis functions
    12 alpha electrons       12 beta electrons
       nuclear repulsion energy        72.9520835740 Hartrees.
 NAtoms=    9 NActive=    9 NUniq=    9 SFac= 1.00D+00 NAtFMM=   60 NAOKFM=F Big=F
 Integral buffers will be    131072 words long.
 Raffenetti 1 integral format.
 Two-electron integral symmetry is turned on.
 One-electron integrals computed using PRISM.
 NBasis=    57 RedAO= T EigKep=  5.09D-03  NBF=    57
 NBsUse=    57 1.00D-06 EigRej= -1.00D+00 NBFU=    57
 Initial guess from the checkpoint file:  "propene_180.chk"
 B after Tr=    -0.000000   -0.000000    0.000000
         Rot=    0.999917    0.000969   -0.001157   -0.012808 Ang=   1.48 deg.
 ExpMin= 1.61D-01 ExpMax= 3.05D+03 ExpMxC= 4.57D+02 IAcc=2 IRadAn=         4 AccDes= 0.00D+00
 Harris functional with IExCor=  205 and IRadAn=       4 diagonalized for initial guess.
 HarFok:  IExCor=  205 AccDes= 0.00D+00 IRadAn=         4 IDoV= 1 UseB2=F ITyADJ=14
 ICtDFT=  3500011 ScaDFX=  1.000000  1.000000  1.000000  1.000000
 FoFCou: FMM=F IPFlag=           0 FMFlag=      100000 FMFlg1=           0
         NFxFlg=           0 DoJE=T BraDBF=F KetDBF=T FulRan=T
         wScrn=  0.000000 ICntrl=       500 IOpCl=  0 I1Cent=   200000004 NGrid=           0
         NMat0=    1 NMatS0=      1 NMatT0=    0 NMatD0=    1 NMtDS0=    0 NMtDT0=    0
 Petite list used in FoFCou.
 Keep R1 ints in memory in canonical form, NReq=3043014.
 Requested convergence on RMS density matrix=1.00D-08 within 128 cycles.
 Requested convergence on MAX density matrix=1.00D-06.
 Requested convergence on             energy=1.00D-06.
 No special actions if energy rises.
 SCF Done:  E(RHF) =  -116.791157084     A.U. after   14 cycles
            NFock= 14  Conv=0.36D-08     -V/T= 1.9953
 Calling FoFJK, ICntrl=      2127 FMM=F ISym2X=0 I1Cent= 0 IOpClX= 0 NMat=1 NMatS=1 NMatT=0.
 ***** Axes restored to original set *****
 -------------------------------------------------------------------
 Center     Atomic                   Forces (Hartrees/Bohr)
 Number     Number              X              Y              Z
 -------------------------------------------------------------------
      1        6           0.135454307    0.006607048    0.064894370
      2        1          -0.009844913   -0.004165387   -0.000763121
      3        6          -0.010618651   -0.002244525    0.042938362
      4        1           0.004716063    0.001122394   -0.002495632
      5        1           0.005867995   -0.001113454   -0.004830811
      6        6          -0.062580282    0.028885847    0.021509639
      7        1          -0.023245053   -0.005456775   -0.011767106
      8        1          -0.043055347    0.026300774   -0.006771186
      9        1           0.003305881   -0.049935921   -0.102714516
 -------------------------------------------------------------------
 Cartesian Forces:  Max     0.135454307 RMS     0.041426398

 GradGradGradGradGradGradGradGradGradGradGradGradGradGradGradGradGradGrad
 Berny optimization.
 Using GEDIIS/GDIIS optimizer.
 FormGI is forming the generalized inverse of G from B-inverse, IUseBI=4.
 Internal  Forces:  Max     0.158251636 RMS     0.045206990
 Search for a local minimum.
 Step number   2 out of a maximum of   40
 All quantities printed in internal units (Hartrees-Bohrs-Radians)
 Mixed Optimization -- RFO/linear search
 Update second derivatives using D2CorX and points    1    2
 DE= -1.61D-01 DEPred=-3.13D-01 R= 5.14D-01
 TightC=F SS=  1.41D+00  RLast= 3.00D-01 DXNew= 5.0454D-01 9.0095D-01
 Trust test= 5.14D-01 RLast= 3.00D-01 DXMaxT set to 5.05D-01
 ITU=  1  0
 Use linear search instead of GDIIS.
     Eigenvalues ---    0.00237   0.01219   0.02229   0.02681   0.02681
     Eigenvalues ---    0.08394   0.15916   0.16000   0.16000   0.16000
     Eigenvalues ---    0.16000   0.21695   0.23537   0.36150   0.37212
     Eigenvalues ---    0.37230   0.37230   0.37230   0.37230   0.53909
     Eigenvalues ---    2.91333
 RFO step:  Lambda=-2.24334977D-01 EMin= 2.36824719D-03
 Quartic linear search produced a step of  1.67844.
 Maximum step size (   0.505) exceeded in Quadratic search.
    -- Step size scaled by   0.764
 Iteration  1 RMS(Cart)=  0.21189516 RMS(Int)=  0.05822420
 Iteration  2 RMS(Cart)=  0.10626666 RMS(Int)=  0.00822626
 Iteration  3 RMS(Cart)=  0.00733908 RMS(Int)=  0.00324478
 Iteration  4 RMS(Cart)=  0.00005182 RMS(Int)=  0.00324457
 Iteration  5 RMS(Cart)=  0.00000040 RMS(Int)=  0.00324457
 Variable       Old X    -DE/DX   Delta X   Delta X   Delta X     New X
                                 (Linear)    (Quad)   (Total)
    R1        2.02025  -0.00074  -0.00294   0.00340   0.00046   2.02071
    R2        2.55928  -0.01748  -0.00282  -0.04068  -0.04349   2.51579
    R3        3.06430   0.15825   0.25869   0.11762   0.37630   3.44061
    R4        2.02274   0.00280   0.00123   0.00706   0.00829   2.03102
    R5        2.02277   0.00488   0.00128   0.01402   0.01530   2.03807
    R6        2.02255  -0.00191   0.00092  -0.00834  -0.00742   2.01513
    R7        2.02607   0.01951   0.00682   0.05264   0.05946   2.08553
    R8        1.97227   0.02177  -0.08349   0.24188   0.15840   2.13066
    A1        2.08451  -0.02073  -0.01326  -0.06154  -0.07483   2.00968
    A2        2.07839  -0.04057  -0.02354  -0.14656  -0.17013   1.90826
    A3        2.12028   0.06131   0.03680   0.20810   0.24486   2.36514
    A4        2.09955   0.00218   0.00201   0.00768   0.00969   2.10924
    A5        2.09240   0.00481  -0.00002   0.02540   0.02538   2.11778
    A6        2.09123  -0.00699  -0.00199  -0.03309  -0.03507   2.05616
    A7        1.47719  -0.03477  -0.15711   0.11175  -0.03907   1.43812
    A8        1.62044   0.06029   0.08332   0.13446   0.21265   1.83309
    A9        0.68494   0.12102   0.33567   0.00151   0.34509   1.03003
   A10        1.90608  -0.00413  -0.00765  -0.01901  -0.02180   1.88428
   A11        2.15942   0.08731   0.17772   0.12598   0.29846   2.45788
   A12        1.35166   0.02658  -0.03844   0.24423   0.21488   1.56654
    D1       -0.00084  -0.00202  -0.00142  -0.01434  -0.01594  -0.01679
    D2        3.14097  -0.00198  -0.00105  -0.01461  -0.01586   3.12511
    D3        3.14116   0.00002  -0.00073   0.00199   0.00144  -3.14059
    D4       -0.00022   0.00007  -0.00037   0.00171   0.00153   0.00131
    D5        0.09220  -0.00399   0.00086  -0.04947  -0.04597   0.04623
    D6        1.99530  -0.01380  -0.01178  -0.07737  -0.08792   1.90738
    D7       -3.13392   0.02124   0.01288   0.15317   0.16178  -2.97214
    D8       -3.04980  -0.00603   0.00018  -0.06572  -0.06263  -3.11243
    D9       -1.14670  -0.01583  -0.01246  -0.09362  -0.10458  -1.25128
   D10        0.00727   0.01921   0.01220   0.13693   0.14511   0.15238
         Item               Value     Threshold  Converged?
 Maximum Force            0.158252     0.000450     NO 
 RMS     Force            0.045207     0.000300     NO 
 Maximum Displacement     0.816890     0.001800     NO 
 RMS     Displacement     0.299219     0.001200     NO 
 Predicted change in Energy=-1.967875D-01
 GradGradGradGradGradGradGradGradGradGradGradGradGradGradGradGradGradGrad

                          Input orientation:                          
 ---------------------------------------------------------------------
 Center     Atomic      Atomic             Coordinates (Angstroms)
 Number     Number       Type             X           Y           Z
 ---------------------------------------------------------------------
      1          6           0        0.162680    0.018028   -0.036451
      2          1           0        0.122361    0.012561    1.032090
      3          6           0        1.386985   -0.035173   -0.556645
      4          1           0        2.254391   -0.064244    0.077307
      5          1           0        1.542913   -0.050275   -1.623708
      6          6           0       -1.530423    0.078394   -0.703288
      7          1           0       -1.784342    0.129096    0.331159
      8          1           0       -1.634273    1.091183   -1.129246
      9          1           0       -0.647106   -0.109690   -1.378289
 ---------------------------------------------------------------------
                    Distance matrix (angstroms):
                    1          2          3          4          5
     1  C    0.000000
     2  H    1.069316   0.000000
     3  C    1.331297   2.031165   0.000000
     4  H    2.096417   2.337320   1.074772   0.000000
     5  H    2.104541   3.012504   1.078501   1.843868   0.000000
     6  C    1.820691   2.397408   2.923298   3.867104   3.210783
     7  H    1.984532   2.034797   3.297346   4.051319   3.863199
     8  H    2.361123   2.986730   3.274835   4.232315   3.412027
     9  H    1.572448   2.533170   2.195034   3.246461   2.204528
                    6          7          8          9
     6  C    0.000000
     7  H    1.066361   0.000000
     8  H    1.103615   1.755253   0.000000
     9  H    1.127498   2.067012   1.574362   0.000000
 Stoichiometry    C3H6
 Framework group  C1[X(C3H6)]
 Deg. of freedom    21
 Full point group                 C1      NOp   1
 Largest Abelian subgroup         C1      NOp   1
 Largest concise Abelian subgroup C1      NOp   1
                         Standard orientation:                         
 ---------------------------------------------------------------------
 Center     Atomic      Atomic             Coordinates (Angstroms)
 Number     Number       Type             X           Y           Z
 ---------------------------------------------------------------------
      1          6           0       -0.187930    0.391042    0.000672
      2          1           0       -0.205833    1.458328    0.064051
      3          6           0       -1.382656   -0.196256    0.008636
      4          1           0       -2.282421    0.385875    0.090381
      5          1           0       -1.481571   -1.267613   -0.066045
      6          6           0        1.537884   -0.176998   -0.116850
      7          1           0        1.738993    0.865421   -0.016634
      8          1           0        1.747271   -0.658843    0.853690
      9          1           0        0.679775   -0.889894   -0.280191
 ---------------------------------------------------------------------
 Rotational constants (GHZ):          52.9853377           7.5624073           6.7892557
 Standard basis: 6-31G(d) (6D, 7F)
 There are    57 symmetry adapted cartesian basis functions of A   symmetry.
 There are    57 symmetry adapted basis functions of A   symmetry.
    57 basis functions,   108 primitive gaussians,    57 cartesian basis functions
    12 alpha electrons       12 beta electrons
       nuclear repulsion energy        68.0704669796 Hartrees.
 NAtoms=    9 NActive=    9 NUniq=    9 SFac= 1.00D+00 NAtFMM=   60 NAOKFM=F Big=F
 Integral buffers will be    131072 words long.
 Raffenetti 1 integral format.
 Two-electron integral symmetry is turned on.
 One-electron integrals computed using PRISM.
 NBasis=    57 RedAO= T EigKep=  5.89D-03  NBF=    57
 NBsUse=    57 1.00D-06 EigRej= -1.00D+00 NBFU=    57
 Initial guess from the checkpoint file:  "propene_180.chk"
 B after Tr=    -0.000000   -0.000000   -0.000000
         Rot=    0.999681    0.013075   -0.006190   -0.020689 Ang=   2.89 deg.
 ExpMin= 1.61D-01 ExpMax= 3.05D+03 ExpMxC= 4.57D+02 IAcc=2 IRadAn=         4 AccDes= 0.00D+00
 Harris functional with IExCor=  205 and IRadAn=       4 diagonalized for initial guess.
 HarFok:  IExCor=  205 AccDes= 0.00D+00 IRadAn=         4 IDoV= 1 UseB2=F ITyADJ=14
 ICtDFT=  3500011 ScaDFX=  1.000000  1.000000  1.000000  1.000000
 FoFCou: FMM=F IPFlag=           0 FMFlag=      100000 FMFlg1=           0
         NFxFlg=           0 DoJE=T BraDBF=F KetDBF=T FulRan=T
         wScrn=  0.000000 ICntrl=       500 IOpCl=  0 I1Cent=   200000004 NGrid=           0
         NMat0=    1 NMatS0=      1 NMatT0=    0 NMatD0=    1 NMtDS0=    0 NMtDT0=    0
 Petite list used in FoFCou.
 Keep R1 ints in memory in canonical form, NReq=3042300.
 Requested convergence on RMS density matrix=1.00D-08 within 128 cycles.
 Requested convergence on MAX density matrix=1.00D-06.
 Requested convergence on             energy=1.00D-06.
 No special actions if energy rises.
 SCF Done:  E(RHF) =  -116.876663547     A.U. after   14 cycles
            NFock= 14  Conv=0.37D-08     -V/T= 2.0013
 Calling FoFJK, ICntrl=      2127 FMM=F ISym2X=0 I1Cent= 0 IOpClX= 0 NMat=1 NMatS=1 NMatT=0.
 ***** Axes restored to original set *****
 -------------------------------------------------------------------
 Center     Atomic                   Forces (Hartrees/Bohr)
 Number     Number              X              Y              Z
 -------------------------------------------------------------------
      1        6           0.011521816    0.034387581    0.010241234
      2        1          -0.004456034   -0.001948523    0.005439368
      3        6          -0.027837891   -0.000704473   -0.009146142
      4        1          -0.000416338   -0.003415977   -0.000219960
      5        1           0.004803972    0.001934442    0.000354080
      6        6           0.093470905    0.059889632   -0.017128154
      7        1          -0.026239793   -0.032916505   -0.005788416
      8        1          -0.006953385    0.001710055    0.019405632
      9        1          -0.043893252   -0.058936233   -0.003157642
 -------------------------------------------------------------------
 Cartesian Forces:  Max     0.093470905 RMS     0.028951885

 GradGradGradGradGradGradGradGradGradGradGradGradGradGradGradGradGradGrad
 Berny optimization.
 Using GEDIIS/GDIIS optimizer.
 FormGI is forming the generalized inverse of G from B-inverse, IUseBI=4.
 Internal  Forces:  Max     0.048758723 RMS     0.021124581
 Search for a local minimum.
 Step number   3 out of a maximum of   40
 All quantities printed in internal units (Hartrees-Bohrs-Radians)
 Mixed Optimization -- RFO/linear search
 Update second derivatives using D2CorX and points    2    3
 DE= -8.55D-02 DEPred=-1.97D-01 R= 4.35D-01
 Trust test= 4.35D-01 RLast= 8.02D-01 DXMaxT set to 5.05D-01
 ITU=  0  1  0
 Use linear search instead of GDIIS.
 Linear search step of   0.958 exceeds DXMaxT=   0.505 but not scaled.
 Quartic linear search produced a step of  1.26803.
 Iteration  1 RMS(Cart)=  0.23171539 RMS(Int)=  0.09511317
 Iteration  2 RMS(Cart)=  0.16879456 RMS(Int)=  0.03881380
 Iteration  3 RMS(Cart)=  0.02791986 RMS(Int)=  0.02996708
 Iteration  4 RMS(Cart)=  0.00071868 RMS(Int)=  0.02996381
 Iteration  5 RMS(Cart)=  0.00028064 RMS(Int)=  0.02996354
 Iteration  6 RMS(Cart)=  0.00012853 RMS(Int)=  0.02996348
 Iteration  7 RMS(Cart)=  0.00005922 RMS(Int)=  0.02996347
 Iteration  8 RMS(Cart)=  0.00002725 RMS(Int)=  0.02996347
 Iteration  9 RMS(Cart)=  0.00001255 RMS(Int)=  0.02996347
 Iteration 10 RMS(Cart)=  0.00000578 RMS(Int)=  0.02996347
 Iteration 11 RMS(Cart)=  0.00000266 RMS(Int)=  0.02996347
 Iteration 12 RMS(Cart)=  0.00000122 RMS(Int)=  0.02996347
 Iteration 13 RMS(Cart)=  0.00000056 RMS(Int)=  0.02996347
 Variable       Old X    -DE/DX   Delta X   Delta X   Delta X     New X
                                 (Linear)    (Quad)   (Total)
    R1        2.02071   0.00561   0.00058   0.00000   0.00058   2.02130
    R2        2.51579  -0.01796  -0.05515   0.00000  -0.05515   2.46064
    R3        3.44061  -0.01380   0.47717   0.00000   0.47717   3.91777
    R4        2.03102  -0.00037   0.01051   0.00000   0.01051   2.04153
    R5        2.03807   0.00032   0.01940   0.00000   0.01940   2.05747
    R6        2.01513  -0.00093  -0.00941   0.00000  -0.00941   2.00572
    R7        2.08553  -0.00527   0.07540   0.00000   0.07540   2.16093
    R8        2.13066  -0.02267   0.20085   0.00000   0.20085   2.33151
    A1        2.00968   0.01426  -0.09489   0.00000  -0.09493   1.91475
    A2        1.90826   0.00578  -0.21573   0.00000  -0.21576   1.69250
    A3        2.36514  -0.02008   0.31049   0.00000   0.31046   2.67559
    A4        2.10924  -0.00316   0.01229   0.00000   0.01229   2.12153
    A5        2.11778   0.00640   0.03219   0.00000   0.03219   2.14997
    A6        2.05616  -0.00324  -0.04447   0.00000  -0.04447   2.01169
    A7        1.43812   0.01448  -0.04954   0.00000  -0.01174   1.42638
    A8        1.83309  -0.01501   0.26965   0.00000   0.27046   2.10354
    A9        1.03003   0.03992   0.43758   0.00000   0.45519   1.48522
   A10        1.88428   0.01248  -0.02764   0.00000  -0.07502   1.80926
   A11        2.45788   0.04043   0.37846   0.00000   0.26507   2.72295
   A12        1.56654   0.02992   0.27247   0.00000   0.18384   1.75038
    D1       -0.01679   0.00158  -0.02021   0.00000  -0.02034  -0.03713
    D2        3.12511   0.00044  -0.02010   0.00000  -0.02023   3.10488
    D3       -3.14059   0.00440   0.00183   0.00000   0.00196  -3.13863
    D4        0.00131   0.00325   0.00194   0.00000   0.00207   0.00338
    D5        0.04623  -0.02993  -0.05829   0.00000  -0.03153   0.01469
    D6        1.90738  -0.01262  -0.11148   0.00000  -0.12935   1.77803
    D7       -2.97214   0.04876   0.20514   0.00000   0.19598  -2.77616
    D8       -3.11243  -0.03255  -0.07942   0.00000  -0.05249   3.11827
    D9       -1.25128  -0.01524  -0.13261   0.00000  -0.15030  -1.40158
   D10        0.15238   0.04614   0.18401   0.00000   0.17503   0.32741
         Item               Value     Threshold  Converged?
 Maximum Force            0.048759     0.000450     NO 
 RMS     Force            0.021125     0.000300     NO 
 Maximum Displacement     1.204711     0.001800     NO 
 RMS     Displacement     0.398909     0.001200     NO 
 Predicted change in Energy=-8.664894D-02
 GradGradGradGradGradGradGradGradGradGradGradGradGradGradGradGradGradGrad

                          Input orientation:                          
 ---------------------------------------------------------------------
 Center     Atomic      Atomic             Coordinates (Angstroms)
 Number     Number       Type             X           Y           Z
 ---------------------------------------------------------------------
      1          6           0        0.367210    0.039317   -0.174982
      2          1           0        0.234070    0.026576    0.886248
      3          6           0        1.634226   -0.056001   -0.459735
      4          1           0        2.386078   -0.099097    0.314849
      5          1           0        2.014427   -0.097555   -1.479115
      6          6           0       -1.639334    0.173877   -0.678781
      7          1           0       -1.746559    0.175096    0.377168
      8          1           0       -2.092321    1.174319   -0.997436
      9          1           0       -1.284611   -0.266652   -1.775288
 ---------------------------------------------------------------------
                    Distance matrix (angstroms):
                    1          2          3          4          5
     1  C    0.000000
     2  H    1.069624   0.000000
     3  C    1.302113   1.943945   0.000000
     4  H    2.082047   2.230118   1.080332   0.000000
     5  H    2.105427   2.963110   1.088768   1.832057   0.000000
     6  C    2.073196   2.445538   3.288924   4.155208   3.750224
     7  H    2.188910   2.050394   3.490491   4.142192   4.202992
     8  H    2.830893   3.205882   3.961056   4.837327   4.326090
     9  H    2.320154   3.078336   3.208531   4.227376   3.316620
                    6          7          8          9
     6  C    0.000000
     7  H    1.061380   0.000000
     8  H    1.143513   1.734225   0.000000
     9  H    1.233784   2.245352   1.825882   0.000000
 Stoichiometry    C3H6
 Framework group  C1[X(C3H6)]
 Deg. of freedom    21
 Full point group                 C1      NOp   1
 Largest Abelian subgroup         C1      NOp   1
 Largest concise Abelian subgroup C1      NOp   1
                         Standard orientation:                         
 ---------------------------------------------------------------------
 Center     Atomic      Atomic             Coordinates (Angstroms)
 Number     Number       Type             X           Y           Z
 ---------------------------------------------------------------------
      1          6           0       -0.322441    0.235851   -0.014405
      2          1           0       -0.289343    1.303511   -0.070102
      3          6           0       -1.561069   -0.163356    0.029583
      4          1           0       -2.381432    0.539453    0.043049
      5          1           0       -1.848226   -1.213250    0.055668
      6          6           0        1.725238   -0.082888   -0.074031
      7          1           0        1.734549    0.977734   -0.113024
      8          1           0        2.303734   -0.323101    0.882663
      9          1           0        1.430354   -1.221987   -0.445139
 ---------------------------------------------------------------------
 Rotational constants (GHZ):          61.6037337           5.8118481           5.4331519
 Standard basis: 6-31G(d) (6D, 7F)
 There are    57 symmetry adapted cartesian basis functions of A   symmetry.
 There are    57 symmetry adapted basis functions of A   symmetry.
    57 basis functions,   108 primitive gaussians,    57 cartesian basis functions
    12 alpha electrons       12 beta electrons
       nuclear repulsion energy        63.8937920370 Hartrees.
 NAtoms=    9 NActive=    9 NUniq=    9 SFac= 1.00D+00 NAtFMM=   60 NAOKFM=F Big=F
 Integral buffers will be    131072 words long.
 Raffenetti 1 integral format.
 Two-electron integral symmetry is turned on.
 One-electron integrals computed using PRISM.
 NBasis=    57 RedAO= T EigKep=  4.62D-03  NBF=    57
 NBsUse=    57 1.00D-06 EigRej= -1.00D+00 NBFU=    57
 Initial guess from the checkpoint file:  "propene_180.chk"
 B after Tr=     0.000000    0.000000    0.000000
         Rot=    0.998634    0.048730   -0.001852   -0.018773 Ang=   5.99 deg.
 ExpMin= 1.61D-01 ExpMax= 3.05D+03 ExpMxC= 4.57D+02 IAcc=2 IRadAn=         4 AccDes= 0.00D+00
 Harris functional with IExCor=  205 and IRadAn=       4 diagonalized for initial guess.
 HarFok:  IExCor=  205 AccDes= 0.00D+00 IRadAn=         4 IDoV= 1 UseB2=F ITyADJ=14
 ICtDFT=  3500011 ScaDFX=  1.000000  1.000000  1.000000  1.000000
 FoFCou: FMM=F IPFlag=           0 FMFlag=      100000 FMFlg1=           0
         NFxFlg=           0 DoJE=T BraDBF=F KetDBF=T FulRan=T
         wScrn=  0.000000 ICntrl=       500 IOpCl=  0 I1Cent=   200000004 NGrid=           0
         NMat0=    1 NMatS0=      1 NMatT0=    0 NMatD0=    1 NMtDS0=    0 NMtDT0=    0
 Petite list used in FoFCou.
 Keep R1 ints in memory in canonical form, NReq=3041581.
 Requested convergence on RMS density matrix=1.00D-08 within 128 cycles.
 Requested convergence on MAX density matrix=1.00D-06.
 Requested convergence on             energy=1.00D-06.
 No special actions if energy rises.
 SCF Done:  E(RHF) =  -116.877394973     A.U. after   14 cycles
            NFock= 14  Conv=0.41D-08     -V/T= 2.0040
 Calling FoFJK, ICntrl=      2127 FMM=F ISym2X=0 I1Cent= 0 IOpClX= 0 NMat=1 NMatS=1 NMatT=0.
 ***** Axes restored to original set *****
 -------------------------------------------------------------------
 Center     Atomic                   Forces (Hartrees/Bohr)
 Number     Number              X              Y              Z
 -------------------------------------------------------------------
      1        6          -0.066609377    0.031594826    0.032309690
      2        1          -0.008042999    0.000704743    0.009419317
      3        6           0.016279620   -0.002278022   -0.047832840
      4        1          -0.004213226   -0.004700699    0.000182480
      5        1           0.000141118    0.003660637    0.005940806
      6        6           0.106616139    0.054953111   -0.094463044
      7        1          -0.025240793   -0.049368324    0.003125906
      8        1           0.031126277   -0.019726790    0.011085626
      9        1          -0.050056759   -0.014839483    0.080232059
 -------------------------------------------------------------------
 Cartesian Forces:  Max     0.106616139 RMS     0.041418294

 GradGradGradGradGradGradGradGradGradGradGradGradGradGradGradGradGradGrad
 Berny optimization.
 Using GEDIIS/GDIIS optimizer.
 FormGI is forming the generalized inverse of G from B-inverse, IUseBI=4.
 Internal  Forces:  Max     0.080398289 RMS     0.033040675
 Search for a local minimum.
 Step number   4 out of a maximum of   40
 All quantities printed in internal units (Hartrees-Bohrs-Radians)
 Mixed Optimization -- RFO/linear search
 Update second derivatives using D2CorX and points    3    4
 ITU=  0  0  1  0
 Use linear search instead of GDIIS.
     Eigenvalues ---    0.00237   0.01280   0.02681   0.02683   0.03429
     Eigenvalues ---    0.08805   0.11185   0.15999   0.16000   0.16001
     Eigenvalues ---    0.16716   0.19440   0.23733   0.26402   0.37221
     Eigenvalues ---    0.37230   0.37230   0.37230   0.37575   0.52050
     Eigenvalues ---    0.64363
 RFO step:  Lambda=-7.68202157D-02 EMin= 2.37342808D-03
 Quartic linear search produced a step of -0.46851.
 Iteration  1 RMS(Cart)=  0.17582693 RMS(Int)=  0.03568833
 Iteration  2 RMS(Cart)=  0.04533249 RMS(Int)=  0.01437003
 Iteration  3 RMS(Cart)=  0.00271395 RMS(Int)=  0.01425583
 Iteration  4 RMS(Cart)=  0.00013495 RMS(Int)=  0.01425566
 Iteration  5 RMS(Cart)=  0.00000760 RMS(Int)=  0.01425566
 Iteration  6 RMS(Cart)=  0.00000044 RMS(Int)=  0.01425566
 Variable       Old X    -DE/DX   Delta X   Delta X   Delta X     New X
                                 (Linear)    (Quad)   (Total)
    R1        2.02130   0.01034  -0.00027   0.01432   0.01405   2.03535
    R2        2.46064   0.02124   0.02584  -0.02286   0.00298   2.46361
    R3        3.91777  -0.06231  -0.22356  -0.05300  -0.27656   3.64121
    R4        2.04153  -0.00261  -0.00492  -0.00090  -0.00582   2.03571
    R5        2.05747  -0.00565  -0.00909   0.00002  -0.00907   2.04841
    R6        2.00572   0.00560   0.00441  -0.00064   0.00377   2.00949
    R7        2.16093  -0.03268  -0.03532  -0.01583  -0.05115   2.10977
    R8        2.33151  -0.08040  -0.09410  -0.04432  -0.13842   2.19310
    A1        1.91475   0.03256   0.04447   0.05481   0.09919   2.01395
    A2        1.69250   0.01859   0.10109   0.00758   0.10859   1.80109
    A3        2.67559  -0.05120  -0.14545  -0.06294  -0.20847   2.46712
    A4        2.12153  -0.00524  -0.00576  -0.01382  -0.01959   2.10194
    A5        2.14997   0.00467  -0.01508   0.02818   0.01308   2.16305
    A6        2.01169   0.00058   0.02084  -0.01436   0.00646   2.01815
    A7        1.42638   0.05368   0.00550   0.20934   0.22306   1.64945
    A8        2.10354  -0.04410  -0.12671  -0.07042  -0.18604   1.91750
    A9        1.48522   0.06038  -0.21326   0.29981   0.10149   1.58671
   A10        1.80926   0.00888   0.03515  -0.01050   0.05093   1.86019
   A11        2.72295  -0.01147  -0.12419  -0.10651  -0.24444   2.47852
   A12        1.75038   0.00931  -0.08613   0.15171   0.11280   1.86317
    D1       -0.03713   0.00370   0.00953   0.01498   0.02433  -0.01280
    D2        3.10488   0.00244   0.00948   0.00384   0.01313   3.11802
    D3       -3.13863   0.00498  -0.00092   0.04478   0.04405  -3.09458
    D4        0.00338   0.00372  -0.00097   0.03364   0.03285   0.03623
    D5        0.01469  -0.04148   0.01477  -0.16513  -0.13157  -0.11688
    D6        1.77803   0.00102   0.06060  -0.05517   0.01520   1.79323
    D7       -2.77616   0.04674  -0.09182   0.29534   0.17457  -2.60159
    D8        3.11827  -0.04234   0.02459  -0.19268  -0.14904   2.96922
    D9       -1.40158   0.00016   0.07042  -0.08273  -0.00227  -1.40385
   D10        0.32741   0.04588  -0.08200   0.26779   0.15710   0.48451
         Item               Value     Threshold  Converged?
 Maximum Force            0.080398     0.000450     NO 
 RMS     Force            0.033041     0.000300     NO 
 Maximum Displacement     0.687787     0.001800     NO 
 RMS     Displacement     0.206603     0.001200     NO 
 Predicted change in Energy=-5.942131D-02
 GradGradGradGradGradGradGradGradGradGradGradGradGradGradGradGradGradGrad

                          Input orientation:                          
 ---------------------------------------------------------------------
 Center     Atomic      Atomic             Coordinates (Angstroms)
 Number     Number       Type             X           Y           Z
 ---------------------------------------------------------------------
      1          6           0        0.318892    0.075809   -0.062069
      2          1           0        0.206008    0.044802    1.008609
      3          6           0        1.544121   -0.016251   -0.497892
      4          1           0        2.364520   -0.103676    0.194762
      5          1           0        1.814188   -0.021299   -1.547667
      6          6           0       -1.498268    0.189025   -0.692818
      7          1           0       -1.929407    0.053914    0.269799
      8          1           0       -1.728359    1.237221   -1.000698
      9          1           0       -1.218506   -0.389665   -1.659099
 ---------------------------------------------------------------------
                    Distance matrix (angstroms):
                    1          2          3          4          5
     1  C    0.000000
     2  H    1.077059   0.000000
     3  C    1.303688   2.015891   0.000000
     4  H    2.069486   2.311615   1.077250   0.000000
     5  H    2.110057   3.020788   1.083970   1.829128   0.000000
     6  C    1.926845   2.412512   3.055530   3.974242   3.427443
     7  H    2.272766   2.259629   3.558043   4.297473   4.162132
     8  H    2.533996   3.033307   3.540216   4.469764   3.799038
     9  H    2.265118   3.055269   3.019925   4.044337   3.057015
                    6          7          8          9
     6  C    0.000000
     7  H    1.063375   0.000000
     8  H    1.116443   1.747798   0.000000
     9  H    1.160537   2.103042   1.827621   0.000000
 Stoichiometry    C3H6
 Framework group  C1[X(C3H6)]
 Deg. of freedom    21
 Full point group                 C1      NOp   1
 Largest Abelian subgroup         C1      NOp   1
 Largest concise Abelian subgroup C1      NOp   1
                         Standard orientation:                         
 ---------------------------------------------------------------------
 Center     Atomic      Atomic             Coordinates (Angstroms)
 Number     Number       Type             X           Y           Z
 ---------------------------------------------------------------------
      1          6           0       -0.279354    0.342408    0.001633
      2          1           0       -0.261669    1.418562   -0.038804
      3          6           0       -1.466128   -0.196941    0.018168
      4          1           0       -2.347284    0.422597    0.003960
      5          1           0       -1.644773   -1.265930    0.036607
      6          6           0        1.587988   -0.130283   -0.046641
      7          1           0        1.921581    0.864595   -0.218978
      8          1           0        1.935122   -0.409905    0.976958
      9          1           0        1.341985   -1.121020   -0.598701
 ---------------------------------------------------------------------
 Rotational constants (GHZ):          53.2707306           6.6468387           6.1093392
 Standard basis: 6-31G(d) (6D, 7F)
 There are    57 symmetry adapted cartesian basis functions of A   symmetry.
 There are    57 symmetry adapted basis functions of A   symmetry.
    57 basis functions,   108 primitive gaussians,    57 cartesian basis functions
    12 alpha electrons       12 beta electrons
       nuclear repulsion energy        65.6029425198 Hartrees.
 NAtoms=    9 NActive=    9 NUniq=    9 SFac= 1.00D+00 NAtFMM=   60 NAOKFM=F Big=F
 Integral buffers will be    131072 words long.
 Raffenetti 1 integral format.
 Two-electron integral symmetry is turned on.
 One-electron integrals computed using PRISM.
 NBasis=    57 RedAO= T EigKep=  5.32D-03  NBF=    57
 NBsUse=    57 1.00D-06 EigRej= -1.00D+00 NBFU=    57
 Initial guess from the checkpoint file:  "propene_180.chk"
 B after Tr=    -0.000000    0.000000   -0.000000
         Rot=    0.999864   -0.014920    0.005120    0.004874 Ang=  -1.89 deg.
 ExpMin= 1.61D-01 ExpMax= 3.05D+03 ExpMxC= 4.57D+02 IAcc=2 IRadAn=         4 AccDes= 0.00D+00
 Harris functional with IExCor=  205 and IRadAn=       4 diagonalized for initial guess.
 HarFok:  IExCor=  205 AccDes= 0.00D+00 IRadAn=         4 IDoV= 1 UseB2=F ITyADJ=14
 ICtDFT=  3500011 ScaDFX=  1.000000  1.000000  1.000000  1.000000
 FoFCou: FMM=F IPFlag=           0 FMFlag=      100000 FMFlg1=           0
         NFxFlg=           0 DoJE=T BraDBF=F KetDBF=T FulRan=T
         wScrn=  0.000000 ICntrl=       500 IOpCl=  0 I1Cent=   200000004 NGrid=           0
         NMat0=    1 NMatS0=      1 NMatT0=    0 NMatD0=    1 NMtDS0=    0 NMtDT0=    0
 Petite list used in FoFCou.
 Keep R1 ints in memory in canonical form, NReq=3041771.
 Requested convergence on RMS density matrix=1.00D-08 within 128 cycles.
 Requested convergence on MAX density matrix=1.00D-06.
 Requested convergence on             energy=1.00D-06.
 No special actions if energy rises.
 SCF Done:  E(RHF) =  -116.971875097     A.U. after   13 cycles
            NFock= 13  Conv=0.30D-08     -V/T= 2.0039
 Calling FoFJK, ICntrl=      2127 FMM=F ISym2X=0 I1Cent= 0 IOpClX= 0 NMat=1 NMatS=1 NMatT=0.
 ***** Axes restored to original set *****
 -------------------------------------------------------------------
 Center     Atomic                   Forces (Hartrees/Bohr)
 Number     Number              X              Y              Z
 -------------------------------------------------------------------
      1        6          -0.086496540    0.018149734    0.016933962
      2        1           0.000352770    0.000771706    0.002652919
      3        6           0.007659302   -0.001252664   -0.031112564
      4        1          -0.001281750   -0.001148867    0.000466854
      5        1          -0.001112163    0.001521701    0.003579270
      6        6           0.137707627    0.033345955   -0.040200528
      7        1          -0.020858489   -0.033725764   -0.006567645
      8        1           0.011095753   -0.019176413    0.005826804
      9        1          -0.047066511    0.001514612    0.048420928
 -------------------------------------------------------------------
 Cartesian Forces:  Max     0.137707627 RMS     0.037291322

 GradGradGradGradGradGradGradGradGradGradGradGradGradGradGradGradGradGrad
 Berny optimization.
 Using GEDIIS/GDIIS optimizer.
 FormGI is forming the generalized inverse of G from B-inverse, IUseBI=4.
 Internal  Forces:  Max     0.079782889 RMS     0.025320664
 Search for a local minimum.
 Step number   5 out of a maximum of   40
 All quantities printed in internal units (Hartrees-Bohrs-Radians)
 Mixed Optimization -- RFO/linear search
 Update second derivatives using D2CorX and points    4    5
 DE= -9.45D-02 DEPred=-5.94D-02 R= 1.59D+00
 TightC=F SS=  1.41D+00  RLast= 6.58D-01 DXNew= 8.4853D-01 1.9735D+00
 Trust test= 1.59D+00 RLast= 6.58D-01 DXMaxT set to 8.49D-01
 ITU=  1  0  0  1  0
 Use linear search instead of GDIIS.
     Eigenvalues ---    0.00237   0.01315   0.02621   0.02682   0.03101
     Eigenvalues ---    0.06284   0.10267   0.11831   0.15999   0.16034
     Eigenvalues ---    0.16318   0.17531   0.25954   0.29142   0.37219
     Eigenvalues ---    0.37228   0.37230   0.37287   0.37876   0.51461
     Eigenvalues ---    0.60107
 RFO step:  Lambda=-4.13976130D-02 EMin= 2.37132384D-03
 Quartic linear search produced a step of  0.92227.
 Iteration  1 RMS(Cart)=  0.17073319 RMS(Int)=  0.10142274
 Iteration  2 RMS(Cart)=  0.08950405 RMS(Int)=  0.05859396
 Iteration  3 RMS(Cart)=  0.05989201 RMS(Int)=  0.03386995
 Iteration  4 RMS(Cart)=  0.01714166 RMS(Int)=  0.03169138
 Iteration  5 RMS(Cart)=  0.00014144 RMS(Int)=  0.03169121
 Iteration  6 RMS(Cart)=  0.00001829 RMS(Int)=  0.03169121
 Iteration  7 RMS(Cart)=  0.00000236 RMS(Int)=  0.03169121
 Iteration  8 RMS(Cart)=  0.00000031 RMS(Int)=  0.03169121
 Variable       Old X    -DE/DX   Delta X   Delta X   Delta X     New X
                                 (Linear)    (Quad)   (Total)
    R1        2.03535   0.00258   0.01296  -0.00288   0.01008   2.04543
    R2        2.46361   0.01406   0.00274   0.00916   0.01190   2.47551
    R3        3.64121  -0.07978  -0.25507  -0.36979  -0.62485   3.01636
    R4        2.03571  -0.00058  -0.00537   0.00158  -0.00379   2.03192
    R5        2.04841  -0.00375  -0.00836  -0.00637  -0.01473   2.03367
    R6        2.00949   0.00680   0.00348   0.01878   0.02226   2.03175
    R7        2.10977  -0.02190  -0.04718  -0.04222  -0.08940   2.02037
    R8        2.19310  -0.05242  -0.12766  -0.07296  -0.20062   1.99248
    A1        2.01395   0.01858   0.09148   0.02812   0.11954   2.13349
    A2        1.80109   0.01966   0.10015   0.08064   0.18073   1.98181
    A3        2.46712  -0.03830  -0.19227  -0.10722  -0.29955   2.16757
    A4        2.10194  -0.00134  -0.01807   0.01042  -0.00775   2.09419
    A5        2.16305   0.00035   0.01207  -0.01158   0.00038   2.16344
    A6        2.01815   0.00099   0.00596   0.00147   0.00733   2.02547
    A7        1.64945   0.03428   0.20572   0.16422   0.31370   1.96315
    A8        1.91750  -0.01379  -0.17158   0.05249  -0.10656   1.81094
    A9        1.58671   0.05708   0.09360   0.23813   0.26847   1.85518
   A10        1.86019   0.00156   0.04697  -0.06201   0.00130   1.86149
   A11        2.47852  -0.04121  -0.22544  -0.09130  -0.42930   2.04922
   A12        1.86317  -0.00399   0.10403  -0.06965   0.04615   1.90933
    D1       -0.01280   0.00093   0.02244  -0.04900  -0.02647  -0.03927
    D2        3.11802   0.00110   0.01211  -0.01324  -0.00103   3.11698
    D3       -3.09458   0.00125   0.04062  -0.09776  -0.05722   3.13138
    D4        0.03623   0.00142   0.03030  -0.06200  -0.03179   0.00444
    D5       -0.11688  -0.01349  -0.12135  -0.08343  -0.15456  -0.27144
    D6        1.79323  -0.00062   0.01402  -0.07208  -0.05969   1.73354
    D7       -2.60159   0.01525   0.16100  -0.04781   0.06480  -2.53679
    D8        2.96922  -0.01355  -0.13746  -0.03850  -0.12588   2.84335
    D9       -1.40385  -0.00068  -0.00210  -0.02715  -0.03100  -1.43486
   D10        0.48451   0.01518   0.14489  -0.00288   0.09348   0.57799
         Item               Value     Threshold  Converged?
 Maximum Force            0.079783     0.000450     NO 
 RMS     Force            0.025321     0.000300     NO 
 Maximum Displacement     0.826001     0.001800     NO 
 RMS     Displacement     0.282197     0.001200     NO 
 Predicted change in Energy=-1.170449D-01
 GradGradGradGradGradGradGradGradGradGradGradGradGradGradGradGradGradGrad

                          Input orientation:                          
 ---------------------------------------------------------------------
 Center     Atomic      Atomic             Coordinates (Angstroms)
 Number     Number       Type             X           Y           Z
 ---------------------------------------------------------------------
      1          6           0        0.218154    0.095531    0.080935
      2          1           0        0.145360    0.095751    1.160878
      3          6           0        1.367234    0.008241   -0.542007
      4          1           0        2.282357   -0.030010    0.021230
      5          1           0        1.470036   -0.016424   -1.612975
      6          6           0       -1.196878    0.172214   -0.653650
      7          1           0       -2.015282   -0.053782    0.005972
      8          1           0       -1.291258    1.204192   -0.916645
      9          1           0       -1.106537   -0.405833   -1.530809
 ---------------------------------------------------------------------
                    Distance matrix (angstroms):
                    1          2          3          4          5
     1  C    0.000000
     2  H    1.082394   0.000000
     3  C    1.309985   2.097725   0.000000
     4  H    2.068879   2.425154   1.075244   0.000000
     5  H    2.109282   3.075972   1.076173   1.825014   0.000000
     6  C    1.596187   2.258310   2.571774   3.549850   2.840478
     7  H    2.239676   2.454494   3.427177   4.297732   3.843153
     8  H    2.121939   2.758372   2.939088   3.895330   3.098310
     9  H    2.145668   3.010650   2.696058   3.746288   2.607128
                    6          7          8          9
     6  C    0.000000
     7  H    1.075156   0.000000
     8  H    1.069136   1.719864   0.000000
     9  H    1.054376   1.819740   1.733061   0.000000
 Stoichiometry    C3H6
 Framework group  C1[X(C3H6)]
 Deg. of freedom    21
 Full point group                 C1      NOp   1
 Largest Abelian subgroup         C1      NOp   1
 Largest concise Abelian subgroup C1      NOp   1
                         Standard orientation:                         
 ---------------------------------------------------------------------
 Center     Atomic      Atomic             Coordinates (Angstroms)
 Number     Number       Type             X           Y           Z
 ---------------------------------------------------------------------
      1          6           0       -0.174054    0.468787   -0.004186
      2          1           0       -0.173142    1.550948   -0.026604
      3          6           0       -1.282613   -0.229164    0.000270
      4          1           0       -2.233484    0.272518    0.017858
      5          1           0       -1.315691   -1.304829    0.000290
      6          6           0        1.288441   -0.170570   -0.016097
      7          1           0        2.043604    0.535977   -0.310170
      8          1           0        1.471690   -0.405350    1.010719
      9          1           0        1.216379   -1.063582   -0.572016
 ---------------------------------------------------------------------
 Rotational constants (GHZ):          46.4391842           9.0009346           7.8829972
 Standard basis: 6-31G(d) (6D, 7F)
 There are    57 symmetry adapted cartesian basis functions of A   symmetry.
 There are    57 symmetry adapted basis functions of A   symmetry.
    57 basis functions,   108 primitive gaussians,    57 cartesian basis functions
    12 alpha electrons       12 beta electrons
       nuclear repulsion energy        70.2843393128 Hartrees.
 NAtoms=    9 NActive=    9 NUniq=    9 SFac= 1.00D+00 NAtFMM=   60 NAOKFM=F Big=F
 Integral buffers will be    131072 words long.
 Raffenetti 1 integral format.
 Two-electron integral symmetry is turned on.
 One-electron integrals computed using PRISM.
 NBasis=    57 RedAO= T EigKep=  5.35D-03  NBF=    57
 NBsUse=    57 1.00D-06 EigRej= -1.00D+00 NBFU=    57
 Initial guess from the checkpoint file:  "propene_180.chk"
 B after Tr=     0.000000   -0.000000    0.000000
         Rot=    0.999896    0.006577    0.008484    0.009639 Ang=   1.65 deg.
 ExpMin= 1.61D-01 ExpMax= 3.05D+03 ExpMxC= 4.57D+02 IAcc=2 IRadAn=         4 AccDes= 0.00D+00
 Harris functional with IExCor=  205 and IRadAn=       4 diagonalized for initial guess.
 HarFok:  IExCor=  205 AccDes= 0.00D+00 IRadAn=         4 IDoV= 1 UseB2=F ITyADJ=14
 ICtDFT=  3500011 ScaDFX=  1.000000  1.000000  1.000000  1.000000
 FoFCou: FMM=F IPFlag=           0 FMFlag=      100000 FMFlg1=           0
         NFxFlg=           0 DoJE=T BraDBF=F KetDBF=T FulRan=T
         wScrn=  0.000000 ICntrl=       500 IOpCl=  0 I1Cent=   200000004 NGrid=           0
         NMat0=    1 NMatS0=      1 NMatT0=    0 NMatD0=    1 NMtDS0=    0 NMtDT0=    0
 Petite list used in FoFCou.
 Keep R1 ints in memory in canonical form, NReq=3042531.
 Requested convergence on RMS density matrix=1.00D-08 within 128 cycles.
 Requested convergence on MAX density matrix=1.00D-06.
 Requested convergence on             energy=1.00D-06.
 No special actions if energy rises.
 SCF Done:  E(RHF) =  -117.060764742     A.U. after   13 cycles
            NFock= 13  Conv=0.44D-08     -V/T= 2.0007
 Calling FoFJK, ICntrl=      2127 FMM=F ISym2X=0 I1Cent= 0 IOpClX= 0 NMat=1 NMatS=1 NMatT=0.
 ***** Axes restored to original set *****
 -------------------------------------------------------------------
 Center     Atomic                   Forces (Hartrees/Bohr)
 Number     Number              X              Y              Z
 -------------------------------------------------------------------
      1        6          -0.053206991   -0.006383795   -0.006562138
      2        1           0.007170521    0.002185394   -0.003153340
      3        6           0.010664207    0.000443614    0.003265698
      4        1           0.001897312   -0.000099486   -0.000938255
      5        1          -0.002834679   -0.000202033   -0.000655855
      6        6           0.059030185    0.019186604    0.034395313
      7        1          -0.002618161   -0.011739476   -0.001226335
      8        1          -0.007928820    0.011224536   -0.008537977
      9        1          -0.012173572   -0.014615356   -0.016587112
 -------------------------------------------------------------------
 Cartesian Forces:  Max     0.059030185 RMS     0.018458269

 GradGradGradGradGradGradGradGradGradGradGradGradGradGradGradGradGradGrad
 Berny optimization.
 Using GEDIIS/GDIIS optimizer.
 FormGI is forming the generalized inverse of G from B-inverse, IUseBI=4.
 Internal  Forces:  Max     0.035695806 RMS     0.009839961
 Search for a local minimum.
 Step number   6 out of a maximum of   40
 All quantities printed in internal units (Hartrees-Bohrs-Radians)
 Mixed Optimization -- RFO/linear search
 Update second derivatives using D2CorX and points    5    6
 DE= -8.89D-02 DEPred=-1.17D-01 R= 7.59D-01
 TightC=F SS=  1.41D+00  RLast= 1.00D+00 DXNew= 1.4270D+00 3.0103D+00
 Trust test= 7.59D-01 RLast= 1.00D+00 DXMaxT set to 1.43D+00
 ITU=  1  1  0  0  1  0
 Use linear search instead of GDIIS.
     Eigenvalues ---    0.00243   0.01316   0.02682   0.02694   0.06235
     Eigenvalues ---    0.07422   0.10235   0.12000   0.15911   0.16038
     Eigenvalues ---    0.16041   0.17590   0.22960   0.27318   0.37171
     Eigenvalues ---    0.37230   0.37235   0.37279   0.38154   0.52734
     Eigenvalues ---    0.61884
 RFO step:  Lambda=-1.39420812D-02 EMin= 2.43328456D-03
 Quartic linear search produced a step of  0.14401.
 Iteration  1 RMS(Cart)=  0.06546482 RMS(Int)=  0.00915365
 Iteration  2 RMS(Cart)=  0.01204452 RMS(Int)=  0.00336511
 Iteration  3 RMS(Cart)=  0.00002851 RMS(Int)=  0.00336502
 Iteration  4 RMS(Cart)=  0.00000023 RMS(Int)=  0.00336502
 Variable       Old X    -DE/DX   Delta X   Delta X   Delta X     New X
                                 (Linear)    (Quad)   (Total)
    R1        2.04543  -0.00363   0.00145  -0.01007  -0.00862   2.03681
    R2        2.47551   0.00773   0.00171   0.02286   0.02457   2.50008
    R3        3.01636  -0.03570  -0.08998  -0.14492  -0.23490   2.78145
    R4        2.03192   0.00113  -0.00055   0.00352   0.00297   2.03489
    R5        2.03367   0.00039  -0.00212  -0.00007  -0.00219   2.03148
    R6        2.03175   0.00371   0.00321   0.01414   0.01735   2.04910
    R7        2.02037   0.01363  -0.01287   0.03238   0.01951   2.03988
    R8        1.99248   0.02077  -0.02889   0.05305   0.02416   2.01664
    A1        2.13349  -0.00649   0.01721  -0.04454  -0.02761   2.10587
    A2        1.98181   0.00742   0.02603   0.03412   0.05983   2.04165
    A3        2.16757  -0.00090  -0.04314   0.01140  -0.03204   2.13552
    A4        2.09419   0.00437  -0.00112   0.03079   0.02965   2.12384
    A5        2.16344  -0.00510   0.00006  -0.03445  -0.03442   2.12901
    A6        2.02547   0.00073   0.00105   0.00383   0.00486   2.03033
    A7        1.96315  -0.00566   0.04518  -0.12344  -0.08128   1.88187
    A8        1.81094   0.01449  -0.01535   0.17444   0.15428   1.96521
    A9        1.85518   0.01436   0.03866   0.03449   0.06413   1.91931
   A10        1.86149  -0.00047   0.00019   0.04691   0.04815   1.90964
   A11        2.04922  -0.01341  -0.06182  -0.08198  -0.15116   1.89806
   A12        1.90933  -0.00624   0.00665  -0.01696  -0.02047   1.88886
    D1       -0.03927   0.00069  -0.00381   0.03034   0.02594  -0.01333
    D2        3.11698   0.00042  -0.00015   0.01525   0.01451   3.13149
    D3        3.13138  -0.00077  -0.00824  -0.01411  -0.02176   3.10962
    D4        0.00444  -0.00105  -0.00458  -0.02920  -0.03319  -0.02875
    D5       -0.27144  -0.00639  -0.02226  -0.10593  -0.12512  -0.39656
    D6        1.73354  -0.00130  -0.00860  -0.00837  -0.02178   1.71177
    D7       -2.53679   0.00396   0.00933   0.06340   0.07325  -2.46354
    D8        2.84335  -0.00524  -0.01813  -0.06607  -0.08031   2.76304
    D9       -1.43486  -0.00014  -0.00446   0.03150   0.02303  -1.41183
   D10        0.57799   0.00511   0.01346   0.10326   0.11806   0.69605
         Item               Value     Threshold  Converged?
 Maximum Force            0.035696     0.000450     NO 
 RMS     Force            0.009840     0.000300     NO 
 Maximum Displacement     0.215413     0.001800     NO 
 RMS     Displacement     0.070019     0.001200     NO 
 Predicted change in Energy=-1.145687D-02
 GradGradGradGradGradGradGradGradGradGradGradGradGradGradGradGradGradGrad

                          Input orientation:                          
 ---------------------------------------------------------------------
 Center     Atomic      Atomic             Coordinates (Angstroms)
 Number     Number       Type             X           Y           Z
 ---------------------------------------------------------------------
      1          6           0        0.165811    0.094969    0.084992
      2          1           0        0.113710    0.095039    1.161565
      3          6           0        1.331773    0.007111   -0.533965
      4          1           0        2.258357   -0.054273    0.011203
      5          1           0        1.407805   -0.004063   -1.606228
      6          6           0       -1.106198    0.219238   -0.645067
      7          1           0       -1.901290   -0.108673    0.015302
      8          1           0       -1.302076    1.230484   -0.967936
      9          1           0       -1.094705   -0.409953   -1.506939
 ---------------------------------------------------------------------
                    Distance matrix (angstroms):
                    1          2          3          4          5
     1  C    0.000000
     2  H    1.077833   0.000000
     3  C    1.322987   2.089553   0.000000
     4  H    2.099158   2.438265   1.076816   0.000000
     5  H    2.100615   3.056989   1.075014   1.828126   0.000000
     6  C    1.471882   2.183465   2.449703   3.438856   2.700723
     7  H    2.078277   2.327153   3.281432   4.160004   3.686518
     8  H    2.133716   2.797938   2.936347   3.909731   3.045485
     9  H    2.092389   2.972574   2.647341   3.697876   2.537156
                    6          7          8          9
     6  C    0.000000
     7  H    1.084336   0.000000
     8  H    1.079458   1.766113   0.000000
     9  H    1.067163   1.748875   1.739126   0.000000
 Stoichiometry    C3H6
 Framework group  C1[X(C3H6)]
 Deg. of freedom    21
 Full point group                 C1      NOp   1
 Largest Abelian subgroup         C1      NOp   1
 Largest concise Abelian subgroup C1      NOp   1
                         Standard orientation:                         
 ---------------------------------------------------------------------
 Center     Atomic      Atomic             Coordinates (Angstroms)
 Number     Number       Type             X           Y           Z
 ---------------------------------------------------------------------
      1          6           0       -0.122161    0.472072   -0.001809
      2          1           0       -0.141636    1.549666    0.009870
      3          6           0       -1.247820   -0.223041   -0.000143
[...]
      4          1           0       -2.226047    0.278313   -0.000149
      5          1           0       -1.295409   -1.297733    0.000240
      6          6           0        1.232575   -0.160345    0.000111
      7          1           0        1.797442    0.152691   -0.874183
      8          1           0        1.797543    0.154292    0.873687
      9          1           0        1.182481   -1.243653    0.000062
 ---------------------------------------------------------------------
 Rotational constants (GHZ):          47.5633688           9.3465971           8.2018966
 Standard basis: 6-31G(d) (6D, 7F)
 There are    57 symmetry adapted cartesian basis functions of A   symmetry.
 There are    57 symmetry adapted basis functions of A   symmetry.
    57 basis functions,   108 primitive gaussians,    57 cartesian basis functions
    12 alpha electrons       12 beta electrons
       nuclear repulsion energy        71.0937743076 Hartrees.
 NAtoms=    9 NActive=    9 NUniq=    9 SFac= 1.00D+00 NAtFMM=   60 NAOKFM=F Big=F
 Integral buffers will be    131072 words long.
 Raffenetti 1 integral format.
 Two-electron integral symmetry is turned on.
 One-electron integrals computed using PRISM.
 NBasis=    57 RedAO= T EigKep=  4.79D-03  NBF=    57
 NBsUse=    57 1.00D-06 EigRej= -1.00D+00 NBFU=    57
 Initial guess from the checkpoint file:  "propene_180.chk"
 B after Tr=     0.000000   -0.000000   -0.000000
         Rot=    1.000000    0.000505   -0.000103   -0.000036 Ang=   0.06 deg.
 Keep R1 ints in memory in canonical form, NReq=3042645.
 Requested convergence on RMS density matrix=1.00D-08 within 128 cycles.
 Requested convergence on MAX density matrix=1.00D-06.
 Requested convergence on             energy=1.00D-06.
 No special actions if energy rises.
 SCF Done:  E(RHF) =  -117.071471094     A.U. after    8 cycles
            NFock=  8  Conv=0.79D-08     -V/T= 2.0006
 Calling FoFJK, ICntrl=      2127 FMM=F ISym2X=0 I1Cent= 0 IOpClX= 0 NMat=1 NMatS=1 NMatT=0.
 ***** Axes restored to original set *****
 -------------------------------------------------------------------
 Center     Atomic                   Forces (Hartrees/Bohr)
 Number     Number              X              Y              Z
 -------------------------------------------------------------------
      1        6          -0.000072881   -0.000048247    0.000036245
      2        1           0.000004772    0.000015207   -0.000020876
      3        6           0.000045101   -0.000000408   -0.000013551
      4        1          -0.000025999    0.000004664    0.000011976
      5        1          -0.000033501    0.000012003    0.000002783
      6        6           0.000106080   -0.000157495   -0.000106164
      7        1           0.000021270    0.000032788    0.000081814
      8        1          -0.000022914    0.000012971   -0.000053104
      9        1          -0.000021928    0.000128517    0.000060877
 -------------------------------------------------------------------
 Cartesian Forces:  Max     0.000157495 RMS     0.000058923

 GradGradGradGradGradGradGradGradGradGradGradGradGradGradGradGradGradGrad
 Berny optimization.
 Using GEDIIS/GDIIS optimizer.
 FormGI is forming the generalized inverse of G from B-inverse, IUseBI=4.
 Internal  Forces:  Max     0.000093654 RMS     0.000039812
 Search for a local minimum.
 Step number  14 out of a maximum of   40
 All quantities printed in internal units (Hartrees-Bohrs-Radians)
 Mixed Optimization -- En-DIIS/RFO-DIIS
 Swapping is turned off.
 Update second derivatives using D2CorX and points   11   12   13   14
 DE= -1.89D-06 DEPred=-1.59D-06 R= 1.19D+00
 TightC=F SS=  1.41D+00  RLast= 1.08D-02 DXNew= 3.1933D+00 3.2449D-02
 Trust test= 1.19D+00 RLast= 1.08D-02 DXMaxT set to 1.90D+00
 ITU=  1  1  1  1  1  1  0  1  1  1  0  0  1  0
     Eigenvalues ---    0.00224   0.01712   0.02869   0.04326   0.07237
     Eigenvalues ---    0.08662   0.11065   0.14621   0.15596   0.16171
     Eigenvalues ---    0.17021   0.17805   0.21189   0.35851   0.36936
     Eigenvalues ---    0.36956   0.37243   0.37338   0.37971   0.39630
     Eigenvalues ---    0.56544
 En-DIIS/RFO-DIIS/Sim-DIIS IScMMF=       -3 using points:    14   13   12   11   10
 RFO step:  Lambda=-3.19975960D-07.
 DidBck=F Rises=F RFO-DIIS coefs:    1.13451   -0.06678   -0.02940   -0.04177    0.00344
 Iteration  1 RMS(Cart)=  0.00030409 RMS(Int)=  0.00000076
 Iteration  2 RMS(Cart)=  0.00000010 RMS(Int)=  0.00000075
 Variable       Old X    -DE/DX   Delta X   Delta X   Delta X     New X
                                 (Linear)    (Quad)   (Total)
    R1        2.03919  -0.00002  -0.00005  -0.00000  -0.00006   2.03913
    R2        2.49147  -0.00002   0.00002  -0.00002  -0.00000   2.49147
    R3        2.83971  -0.00007   0.00027  -0.00036  -0.00009   2.83962
    R4        2.03259  -0.00002   0.00002  -0.00005  -0.00003   2.03256
    R5        2.03532  -0.00001  -0.00001  -0.00002  -0.00003   2.03529
    R6        2.05404   0.00000   0.00005  -0.00002   0.00003   2.05406
    R7        2.05392   0.00002  -0.00003   0.00007   0.00005   2.05396
    R8        2.04934  -0.00009  -0.00031  -0.00001  -0.00033   2.04902
    A1        2.07501   0.00001   0.00013  -0.00001   0.00012   2.07513
    A2        2.02218   0.00001   0.00012  -0.00015  -0.00003   2.02216
    A3        2.18599  -0.00002  -0.00025   0.00015  -0.00009   2.18590
    A4        2.12315  -0.00001   0.00012  -0.00012   0.00000   2.12316
    A5        2.12708  -0.00003  -0.00005  -0.00016  -0.00021   2.12687
    A6        2.03295   0.00004  -0.00007   0.00028   0.00021   2.03316
    A7        1.93597  -0.00009  -0.00044  -0.00010  -0.00054   1.93542
    A8        1.93556   0.00004   0.00004   0.00012   0.00016   1.93572
    A9        1.94441   0.00005   0.00061  -0.00030   0.00031   1.94472
   A10        1.86815  -0.00000  -0.00007  -0.00002  -0.00009   1.86806
   A11        1.88773   0.00007   0.00012   0.00064   0.00077   1.88850
   A12        1.88938  -0.00008  -0.00029  -0.00032  -0.00061   1.88877
    D1       -0.00032   0.00001   0.00011   0.00046   0.00056   0.00025
    D2        3.14130   0.00001   0.00032  -0.00009   0.00023   3.14153
    D3       -3.14149  -0.00000   0.00006   0.00016   0.00022  -3.14127
    D4        0.00012  -0.00000   0.00028  -0.00039  -0.00011   0.00001
    D5       -1.03708   0.00003   0.00032   0.00004   0.00035  -1.03673
    D6        1.03637  -0.00000  -0.00003   0.00002  -0.00000   1.03637
    D7       -3.14104  -0.00004   0.00004  -0.00051  -0.00046  -3.14150
    D8        2.10411   0.00004   0.00036   0.00032   0.00068   2.10479
    D9       -2.10563   0.00001   0.00002   0.00031   0.00033  -2.10530
   D10        0.00015  -0.00003   0.00009  -0.00022  -0.00013   0.00002
         Item               Value     Threshold  Converged?
 Maximum Force            0.000094     0.000450     YES
 RMS     Force            0.000040     0.000300     YES
 Maximum Displacement     0.000923     0.001800     YES
 RMS     Displacement     0.000304     0.001200     YES
 Predicted change in Energy=-1.595158D-07
 Optimization completed.
    -- Stationary point found.
                           ----------------------------
                           !   Optimized Parameters   !
                           ! (Angstroms and Degrees)  !
 --------------------------                            --------------------------
 ! Name  Definition              Value          Derivative Info.                !
 --------------------------------------------------------------------------------
 ! R1    R(1,2)                  1.0791         -DE/DX =    0.0                 !
 ! R2    R(1,3)                  1.3184         -DE/DX =    0.0                 !
 ! R3    R(1,6)                  1.5027         -DE/DX =   -0.0001              !
 ! R4    R(3,4)                  1.0756         -DE/DX =    0.0                 !
 ! R5    R(3,5)                  1.077          -DE/DX =    0.0                 !
 ! R6    R(6,7)                  1.0869         -DE/DX =    0.0                 !
 ! R7    R(6,8)                  1.0869         -DE/DX =    0.0                 !
 ! R8    R(6,9)                  1.0845         -DE/DX =   -0.0001              !
 ! A1    A(2,1,3)              118.8893         -DE/DX =    0.0                 !
 ! A2    A(2,1,6)              115.8626         -DE/DX =    0.0                 !
 ! A3    A(3,1,6)              125.2482         -DE/DX =    0.0                 !
 ! A4    A(1,3,4)              121.6477         -DE/DX =    0.0                 !
 ! A5    A(1,3,5)              121.8728         -DE/DX =    0.0                 !
 ! A6    A(4,3,5)              116.4795         -DE/DX =    0.0                 !
 ! A7    A(1,6,7)              110.9227         -DE/DX =   -0.0001              !
 ! A8    A(1,6,8)              110.8995         -DE/DX =    0.0                 !
 ! A9    A(1,6,9)              111.4065         -DE/DX =    0.0001              !
 ! A10   A(7,6,8)              107.0372         -DE/DX =    0.0                 !
 ! A11   A(7,6,9)              108.1591         -DE/DX =    0.0001              !
 ! A12   A(8,6,9)              108.2536         -DE/DX =   -0.0001              !
 ! D1    D(2,1,3,4)             -0.0181         -DE/DX =    0.0                 !
 ! D2    D(2,1,3,5)            179.9831         -DE/DX =    0.0                 !
 ! D3    D(6,1,3,4)           -179.9942         -DE/DX =    0.0                 !
 ! D4    D(6,1,3,5)              0.007          -DE/DX =    0.0                 !
 ! D5    D(2,1,6,7)            -59.4202         -DE/DX =    0.0                 !
 ! D6    D(2,1,6,8)             59.3798         -DE/DX =    0.0                 !
 ! D7    D(2,1,6,9)           -179.9682         -DE/DX =    0.0                 !
 ! D8    D(3,1,6,7)            120.5565         -DE/DX =    0.0                 !
 ! D9    D(3,1,6,8)           -120.6435         -DE/DX =    0.0                 !
 ! D10   D(3,1,6,9)              0.0086         -DE/DX =    0.0                 !
 --------------------------------------------------------------------------------
 GradGradGradGradGradGradGradGradGradGradGradGradGradGradGradGradGradGrad

                          Input orientation:                          
 ---------------------------------------------------------------------
 Center     Atomic      Atomic             Coordinates (Angstroms)
 Number     Number       Type             X           Y           Z
 ---------------------------------------------------------------------
      1          6           0        0.202323    0.213167    0.050367
      2          1           0        0.190115    0.480695    1.095701
      3          6           0        1.352485   -0.097837   -0.514137
      4          1           0        2.273786   -0.090596    0.040902
      5          1           0        1.420122   -0.372189   -1.553454
      6          6           0       -1.129176    0.229492   -0.646033
      7          1           0       -1.823289   -0.460125   -0.172649
      8          1           0       -1.579587    1.217508   -0.598337
      9          1           0       -1.033594   -0.050236   -1.689432
 ---------------------------------------------------------------------
                    Distance matrix (angstroms):
                    1          2          3          4          5
     1  C    0.000000
     2  H    1.079094   0.000000
     3  C    1.318431   2.068183   0.000000
     4  H    2.093638   2.404300   1.075599   0.000000
     5  H    2.097121   3.042754   1.077044   1.830302   0.000000
     6  C    1.502707   2.199379   2.506628   3.486328   2.772066
     7  H    2.146197   2.558838   3.214562   4.119245   3.526198
     8  H    2.145861   2.558223   3.214696   4.119252   3.526704
     9  H    2.150296   3.088093   2.660255   3.732887   2.478480
                    6          7          8          9
     6  C    0.000000
     7  H    1.086949   0.000000
     8  H    1.086886   1.747871   0.000000
     9  H    1.084466   1.758482   1.759481   0.000000
 Stoichiometry    C3H6
 Framework group  C1[X(C3H6)]
 Deg. of freedom    21
 Full point group                 C1      NOp   1
 Largest Abelian subgroup         C1      NOp   1
 Largest concise Abelian subgroup C1      NOp   1
                         Standard orientation:                         
 ---------------------------------------------------------------------
 Center     Atomic      Atomic             Coordinates (Angstroms)
 Number     Number       Type             X           Y           Z
 ---------------------------------------------------------------------
      1          6           0       -0.139639    0.452156    0.000003
      2          1           0       -0.173694    1.530713   -0.000496
      3          6           0       -1.273322   -0.220915    0.000026
      4          1           0       -2.226047    0.278313   -0.000149
      5          1           0       -1.295409   -1.297733    0.000240
      6          6           0        1.232575   -0.160345    0.000111
      7          1           0        1.797442    0.152691   -0.874183
      8          1           0        1.797543    0.154292    0.873687
      9          1           0        1.182481   -1.243653    0.000062
 ---------------------------------------------------------------------
 Rotational constants (GHZ):          47.5633688           9.3465971           8.2018966

 **********************************************************************

            Population analysis using the SCF density.

 **********************************************************************

 Orbital symmetries:
       Occupied  (A) (A) (A) (A) (A) (A) (A) (A) (A) (A) (A) (A)
       Virtual   (A) (A) (A) (A) (A) (A) (A) (A) (A) (A) (A) (A)
                 (A) (A) (A) (A) (A) (A) (A) (A) (A) (A) (A) (A)
                 (A) (A) (A) (A) (A) (A) (A) (A) (A) (A) (A) (A)
                 (A) (A) (A) (A) (A) (A) (A) (A) (A)
 The electronic state is 1-A.
 Alpha  occ. eigenvalues --  -11.22843 -11.21784 -11.21262  -1.06265  -0.93241
 Alpha  occ. eigenvalues --   -0.75598  -0.63731  -0.58149  -0.56656  -0.52277
 Alpha  occ. eigenvalues --   -0.48638  -0.35706
 Alpha virt. eigenvalues --    0.19286   0.25621   0.28512   0.29840   0.32892
 Alpha virt. eigenvalues --    0.33518   0.35121   0.44934   0.54937   0.68823
 Alpha virt. eigenvalues --    0.73652   0.74792   0.83053   0.84935   0.90943
 Alpha virt. eigenvalues --    0.91602   0.95912   1.04458   1.13528   1.15730
 Alpha virt. eigenvalues --    1.17483   1.18664   1.22643   1.24921   1.36617
 Alpha virt. eigenvalues --    1.47979   1.58525   1.67540   1.80394   2.01641
 Alpha virt. eigenvalues --    2.07534   2.20417   2.29003   2.35151   2.41779
 Alpha virt. eigenvalues --    2.56259   2.66036   2.67666   2.78908   2.83919
 Alpha virt. eigenvalues --    3.14788   3.24134   4.54239   4.63510   4.82307
          Condensed to atoms (all electrons):
               1          2          3          4          5          6
     1  C    4.911367   0.394621   0.669523  -0.038414  -0.043226   0.349112
     2  H    0.394621   0.509179  -0.039126  -0.003802   0.003542  -0.041610
     3  C    0.669523  -0.039126   5.022176   0.396462   0.397135  -0.048978
     4  H   -0.038414  -0.003802   0.396462   0.498000  -0.028573   0.003227
     5  H   -0.043226   0.003542   0.397135  -0.028573   0.503690  -0.004452
     6  C    0.349112  -0.041610  -0.048978   0.003227  -0.004452   5.077834
     7  H   -0.039325  -0.000669  -0.000323  -0.000118   0.000105   0.390319
     8  H   -0.039371  -0.000666  -0.000316  -0.000118   0.000105   0.390318
     9  H   -0.042756   0.003129  -0.000153   0.000078   0.002921   0.395907
               7          8          9
     1  C   -0.039325  -0.039371  -0.042756
     2  H   -0.000669  -0.000666   0.003129
     3  C   -0.000323  -0.000316  -0.000153
     4  H   -0.000118  -0.000118   0.000078
     5  H    0.000105   0.000105   0.002921
     6  C    0.390319   0.390318   0.395907
     7  H    0.538527  -0.033405  -0.025547
     8  H   -0.033405   0.538392  -0.025405
     9  H   -0.025547  -0.025405   0.520530
 Mulliken charges:
               1
     1  C   -0.121530
     2  H    0.175402
     3  C   -0.396401
     4  H    0.173258
     5  H    0.168753
     6  C   -0.511677
     7  H    0.170435
     8  H    0.170465
     9  H    0.171296
 Sum of Mulliken charges =  -0.00000
 Mulliken charges with hydrogens summed into heavy atoms:
               1
     1  C    0.053871
     3  C   -0.054390
     6  C    0.000519
 Electronic spatial extent (au):  <R**2>=            195.7691
 Charge=              0.0000 electrons
 Dipole moment (field-independent basis, Debye):
    X=              0.2925    Y=              0.0872    Z=             -0.0005  Tot=              0.3052
 Quadrupole moment (field-independent basis, Debye-Ang):
   XX=            -19.1741   YY=            -18.8282   ZZ=            -21.7348
   XY=              0.1977   XZ=             -0.0001   YZ=              0.0009
 Traceless Quadrupole moment (field-independent basis, Debye-Ang):
   XX=              0.7383   YY=              1.0841   ZZ=             -1.8224
   XY=              0.1977   XZ=             -0.0001   YZ=              0.0009
 Octapole moment (field-independent basis, Debye-Ang**2):
  XXX=             -2.4604  YYY=             -0.1987  ZZZ=             -0.0011  XYY=             -0.6228
  XXY=              0.5731  XXZ=             -0.0013  XZZ=              2.3113  YZZ=              0.2364
  YYZ=             -0.0011  XYZ=              0.0035
 Hexadecapole moment (field-independent basis, Debye-Ang**3):
 XXXX=           -179.4672 YYYY=            -48.8347 ZZZZ=            -29.4981 XXXY=             -0.8283
 XXXZ=              0.0005 YYYX=              0.2726 YYYZ=             -0.0008 ZZZX=             -0.0011
 ZZZY=              0.0018 XXYY=            -39.4051 XXZZ=            -36.2859 YYZZ=            -14.5911
 XXYZ=              0.0047 YYXZ=              0.0002 ZZXY=              0.6011
 N-N= 7.109377430755D+01 E-N=-4.142104917312D+02  KE= 1.170030102544D+02
 B after Tr=    -0.209723   -0.200137   -0.148766
         Rot=    0.998882   -0.037775   -0.004550   -0.028052 Ang=  -5.42 deg.
 Final structure in terms of initial Z-matrix:
 C
 H,1,B1
 C,1,B2,2,A1
 H,3,B3,1,A2,2,D1,0
 H,3,B4,1,A3,2,D2,0
 C,1,B5,3,A4,5,D3,0
 H,6,B6,1,A5,3,D4,0
 H,6,B7,1,A6,3,D5,0
 H,6,B8,3,A7,1,D6,0
      Variables:
 B1=1.07909418
 B2=1.31843112
 B3=1.07559934
 B4=1.07704427
 B5=1.50270719
 B6=1.0869488
 B7=1.08688561
 B8=1.08446562
 A1=118.88926417
 A2=121.64770796
 A3=121.87283563
 A4=125.24816581
 A5=110.92270543
 A6=110.89945621
 A7=85.96782136
 D1=-0.01812908
 D2=179.98305738
 D3=0.00696752
 D4=120.55648605
 D5=-120.64345928
 D6=-179.99201403
 1\1\GINC-NODE180\FOpt\RHF\6-31G(d)\C3H6\ROOT\15-Dec-2021\0\\# opt hf/6
 -31g(d) geom=connectivity\\Title Card Required\\0,1\C,0.202323261,0.21
 31672256,0.0503665242\H,0.1901153599,0.4806951828,1.095700924\C,1.3524
 854787,-0.0978372476,-0.5141365481\H,2.2737856483,-0.0905960904,0.0409
 017515\H,1.4201218719,-0.372189206,-1.5534539545\C,-1.1291758649,0.229
 4924075,-0.6460331251\H,-1.8232890884,-0.4601246775,-0.1726487092\H,-1
 .5795865281,1.2175084106,-0.5983368592\H,-1.0335935552,-0.0502361039,-
 1.6894322197\\Version=EM64L-G16RevA.03\State=1-A\HF=-117.0714711\RMSD=
 7.892e-09\RMSF=5.892e-05\Dipole=-0.1153406,0.0227913,0.0244567\Quadrup
 ole=0.524675,-1.1782006,0.6535255,-0.2950428,-0.0856756,0.524733\PG=C0
 1 [X(C3H6)]\\@


 IN THE LONG RUN, DIGGING FOR TRUTH HAS ALWAYS PROVED NOT ONLY 
 MORE INTERESTING BUT MORE PROFITABLE THAN DIGGING FOR GOLD.

                             -- GEORGE R. HARRISON
 Job cpu time:       0 days  0 hours  3 minutes 32.8 seconds.
 Elapsed time:       0 days  0 hours  0 minutes 33.9 seconds.
 File lengths (MBytes):  RWF=     72 Int=      0 D2E=      0 Chk=      8 Scr=      8
 Normal termination of Gaussian 16 at Wed Dec 15 11:03:08 2021.
