************************************************************
This is node127 of the Cardinal research cluster.
Date: Mon Dec 13 11:09:11 EST 2021
************************************************************
 Set GAUSS_MDEF to "12GB".
 Set GAUSS_PDEF to "8".
 Entering Gaussian System, Link 0=g16
 Initial command:
 /usr/local/g16reva03/legacy_cpu/g16/l1.exe "/scratch/global/amkiny01/Gau-5074.inp" -scrdir="/scratch/global/amkiny01/"
 Default is to use a total of   8 processors:
                                8 via shared-memory
                                1 via Linda
 Entering Link 1 = /usr/local/g16reva03/legacy_cpu/g16/l1.exe PID=      5075.
  
 Copyright (c) 1988,1990,1992,1993,1995,1998,2003,2009,2016,
            Gaussian, Inc.  All Rights Reserved.
  
 This is part of the Gaussian(R) 16 program.  It is based on
 the Gaussian(R) 09 system (copyright 2009, Gaussian, Inc.),
 the Gaussian(R) 03 system (copyright 2003, Gaussian, Inc.),
 the Gaussian(R) 98 system (copyright 1998, Gaussian, Inc.),
 the Gaussian(R) 94 system (copyright 1995, Gaussian, Inc.),
 the Gaussian 92(TM) system (copyright 1992, Gaussian, Inc.),
 the Gaussian 90(TM) system (copyright 1990, Gaussian, Inc.),
 the Gaussian 88(TM) system (copyright 1988, Gaussian, Inc.),
 the Gaussian 86(TM) system (copyright 1986, Carnegie Mellon
 University), and the Gaussian 82(TM) system (copyright 1983,
 Carnegie Mellon University). Gaussian is a federally registered
 trademark of Gaussian, Inc.
  
 This software contains proprietary and confidential information,
 including trade secrets, belonging to Gaussian, Inc.
  
 This software is provided under written license and may be
 used, copied, transmitted, or stored only in accord with that
 written license.
  
 The following legend is applicable only to US Government
 contracts under FAR:
  
                    RESTRICTED RIGHTS LEGEND
  
 Use, reproduction and disclosure by the US Government is
 subject to restrictions as set forth in subparagraphs (a)
 and (c) of the Commercial Computer Software - Restricted
 Rights clause in FAR 52.227-19.
  
 Gaussian, Inc.
 340 Quinnipiac St., Bldg. 40, Wallingford CT 06492
  
  
 ---------------------------------------------------------------
 Warning -- This program may not be used in any manner that
 competes with the business of Gaussian, Inc. or will provide
 assistance to any competitor of Gaussian, Inc.  The licensee
 of this program is prohibited from giving any competitor of
 Gaussian, Inc. access to this program.  By using this program,
 the user acknowledges that Gaussian, Inc. is engaged in the
 business of creating and licensing software in the field of
 computational chemistry and represents and warrants to the
 licensee that it is not a competitor of Gaussian, Inc. and that
 it will not use this program in any manner prohibited above.
 ---------------------------------------------------------------
  

 Cite this work as:
 Gaussian 16, Revision A.03,
 M. J. Frisch, G. W. Trucks, H. B. Schlegel, G. E. Scuseria, 
 M. A. Robb, J. R. Cheeseman, G. Scalmani, V. Barone, 
 G. A. Petersson, H. Nakatsuji, X. Li, M. Caricato, A. V. Marenich, 
 J. Bloino, B. G. Janesko, R. Gomperts, B. Mennucci, H. P. Hratchian, 
 J. V. Ortiz, A. F. Izmaylov, J. L. Sonnenberg, D. Williams-Young, 
 F. Ding, F. Lipparini, F. Egidi, J. Goings, B. Peng, A. Petrone, 
 T. Henderson, D. Ranasinghe, V. G. Zakrzewski, J. Gao, N. Rega, 
 G. Zheng, W. Liang, M. Hada, M. Ehara, K. Toyota, R. Fukuda, 
 J. Hasegawa, M. Ishida, T. Nakajima, Y. Honda, O. Kitao, H. Nakai, 
 T. Vreven, K. Throssell, J. A. Montgomery, Jr., J. E. Peralta, 
 F. Ogliaro, M. J. Bearpark, J. J. Heyd, E. N. Brothers, K. N. Kudin, 
 V. N. Staroverov, T. A. Keith, R. Kobayashi, J. Normand, 
 K. Raghavachari, A. P. Rendell, J. C. Burant, S. S. Iyengar, 
 J. Tomasi, M. Cossi, J. M. Millam, M. Klene, C. Adamo, R. Cammi, 
 J. W. Ochterski, R. L. Martin, K. Morokuma, O. Farkas, 
 J. B. Foresman, and D. J. Fox, Gaussian, Inc., Wallingford CT, 2016.
 
 ******************************************
 Gaussian 16:  EM64L-G16RevA.03 25-Dec-2016
                13-Dec-2021 
 ******************************************
 %chk=formaldehyde.chk
 -----------------------------------------------
 # RMP2/6-31g(d) geom=connectivity pop=full test
 -----------------------------------------------
 1/38=1,57=2,172=1/1;
 2/12=2,17=6,18=5,40=1/2;
 3/5=1,6=6,7=1,11=1,25=1,30=1,116=1/1,2,3;
 4//1;
 5/5=2,38=5/2;
 8/10=2/1;
 9/16=-3/6;
 6/7=3/1;
 99/5=1,9=1/99;
 ----------------------------------------------------------
 Single Point Energy Calculation for Formaldehyde using RHF
 ----------------------------------------------------------
 Symbolic Z-matrix:
 Charge =  0 Multiplicity = 1
 C
 H                    1    B1
 H                    1    B2       2    A1
 O                    1    B3       3    A2       2    D1       0
       Variables:
  B1                    1.07                     
  B2                    1.07                     
  B3                    1.2584                   
  A1                  119.88653                  
  A2                  119.88653                  
  D1                  180.                       
 
                          Input orientation:                          
 ---------------------------------------------------------------------
 Center     Atomic      Atomic             Coordinates (Angstroms)
 Number     Number       Type             X           Y           Z
 ---------------------------------------------------------------------
      1          6           0        0.000000    0.000000    0.000000
      2          1           0        0.000000    0.000000    1.070000
      3          1           0        0.927705    0.000000   -0.533164
      4          8           0       -1.087306    0.000000   -0.633512
 ---------------------------------------------------------------------
                    Distance matrix (angstroms):
                    1          2          3          4
     1  C    0.000000
     2  H    1.070000   0.000000
     3  H    1.070000   1.852234   0.000000
     4  O    1.258400   2.020937   2.017508   0.000000
 Stoichiometry    CH2O
 Framework group  CS[SG(CH2O)]
 Deg. of freedom     5
 Full point group                 CS      NOp   2
 Largest Abelian subgroup         CS      NOp   2
 Largest concise Abelian subgroup C1      NOp   1
                         Standard orientation:                         
 ---------------------------------------------------------------------
 Center     Atomic      Atomic             Coordinates (Angstroms)
 Number     Number       Type             X           Y           Z
 ---------------------------------------------------------------------
      1          6           0        0.000199    0.562211    0.000000
      2          1           0        0.924720    1.100877    0.000000
      3          1           0       -0.927506    1.095374   -0.000000
      4          8           0        0.000199   -0.696189   -0.000000
 ---------------------------------------------------------------------
 Rotational constants (GHZ):         292.3297872          36.5731203          32.5062875
 Standard basis: 6-31G(d) (6D, 7F)
 There are    26 symmetry adapted cartesian basis functions of A'  symmetry.
 There are     8 symmetry adapted cartesian basis functions of A"  symmetry.
 There are    26 symmetry adapted basis functions of A'  symmetry.
 There are     8 symmetry adapted basis functions of A"  symmetry.
    34 basis functions,    64 primitive gaussians,    34 cartesian basis functions
     8 alpha electrons        8 beta electrons
       nuclear repulsion energy        30.5982779071 Hartrees.
 NAtoms=    4 NActive=    4 NUniq=    4 SFac= 1.00D+00 NAtFMM=   60 NAOKFM=F Big=F
 Integral buffers will be    131072 words long.
 Raffenetti 1 integral format.
 Two-electron integral symmetry is turned on.
 One-electron integrals computed using PRISM.
 NBasis=    34 RedAO= T EigKep=  9.99D-03  NBF=    26     8
 NBsUse=    34 1.00D-06 EigRej= -1.00D+00 NBFU=    26     8
 ExpMin= 1.61D-01 ExpMax= 5.48D+03 ExpMxC= 8.25D+02 IAcc=3 IRadAn=         5 AccDes= 0.00D+00
 Harris functional with IExCor=  205 and IRadAn=       5 diagonalized for initial guess.
 HarFok:  IExCor=  205 AccDes= 0.00D+00 IRadAn=         5 IDoV= 1 UseB2=F ITyADJ=14
 ICtDFT=  3500011 ScaDFX=  1.000000  1.000000  1.000000  1.000000
 FoFCou: FMM=F IPFlag=           0 FMFlag=      100000 FMFlg1=           0
         NFxFlg=           0 DoJE=T BraDBF=F KetDBF=T FulRan=T
         wScrn=  0.000000 ICntrl=       500 IOpCl=  0 I1Cent=   200000004 NGrid=           0
         NMat0=    1 NMatS0=      1 NMatT0=    0 NMatD0=    1 NMtDS0=    0 NMtDT0=    0
 Petite list used in FoFCou.
 Initial guess orbital symmetries:
       Occupied  (A') (A') (A') (A') (A') (A') (A") (A')
       Virtual   (A") (A') (A') (A') (A") (A') (A') (A') (A') (A')
                 (A") (A') (A') (A') (A") (A") (A') (A') (A") (A')
                 (A') (A") (A') (A') (A') (A')
 The electronic state of the initial guess is 1-A'.
 Keep R1 ints in memory in symmetry-blocked form, NReq=1832286.
 Requested convergence on RMS density matrix=1.00D-08 within 128 cycles.
 Requested convergence on MAX density matrix=1.00D-06.
 Requested convergence on             energy=1.00D-06.
 No special actions if energy rises.
 SCF Done:  E(RHF) =  -113.857032887     A.U. after   11 cycles
            NFock= 11  Conv=0.48D-08     -V/T= 2.0039
 ExpMin= 1.61D-01 ExpMax= 5.48D+03 ExpMxC= 8.25D+02 IAcc=3 IRadAn=         5 AccDes= 0.00D+00
 HarFok:  IExCor=  205 AccDes= 0.00D+00 IRadAn=         5 IDoV=-2 UseB2=F ITyADJ=14
 ICtDFT= 12500011 ScaDFX=  1.000000  1.000000  1.000000  1.000000
 Range of M.O.s used for correlation:     3    34
 NBasis=    34 NAE=     8 NBE=     8 NFC=     2 NFV=     0
 NROrb=     32 NOA=     6 NOB=     6 NVA=    26 NVB=    26
 Fully in-core method, ICMem=     6455337.
 JobTyp=1 Pass  1 fully in-core, NPsUse=  8.
 Spin components of T(2) and E(2):
     alpha-alpha T2 =       0.1229495512D-01 E2=     -0.3920187469D-01
     alpha-beta  T2 =       0.7488068731D-01 E2=     -0.2290884699D+00
     beta-beta   T2 =       0.1229495512D-01 E2=     -0.3920187469D-01
 ANorm=    0.1048556435D+01
 E2 =    -0.3074922193D+00 EUMP2 =    -0.11416452510625D+03

 **********************************************************************

            Population analysis using the SCF density.

 **********************************************************************

 Orbital symmetries:
       Occupied  (A') (A') (A') (A') (A') (A') (A") (A')
       Virtual   (A") (A') (A') (A') (A") (A') (A') (A') (A') (A')
                 (A') (A") (A') (A') (A") (A") (A') (A') (A") (A')
                 (A') (A") (A') (A') (A') (A')
 The electronic state is 1-A'.
 Alpha  occ. eigenvalues --  -20.58381 -11.34280  -1.36813  -0.88411  -0.69406
 Alpha  occ. eigenvalues --   -0.62953  -0.50724  -0.44573
 Alpha virt. eigenvalues --    0.12404   0.25006   0.33084   0.36931   0.73993
 Alpha virt. eigenvalues --    0.80115   0.83730   0.90404   1.11162   1.11452
 Alpha virt. eigenvalues --    1.14991   1.27247   1.33386   1.61118   1.77363
 Alpha virt. eigenvalues --    1.79272   2.01057   2.17594   2.22307   2.43351
 Alpha virt. eigenvalues --    2.58714   2.83077   2.94956   3.23424   4.06930
 Alpha virt. eigenvalues --    4.47977
     Molecular Orbital Coefficients:
                           1         2         3         4         5
                           O         O         O         O         O
     Eigenvalues --   -20.58381 -11.34280  -1.36813  -0.88411  -0.69406
   1 1   C  1S          0.00000   0.99570  -0.10648  -0.16441   0.00002
   2        2S          0.00052   0.02655   0.20279   0.34449  -0.00006
   3        2PX         0.00000   0.00000  -0.00006  -0.00013   0.42959
   4        2PY        -0.00007  -0.00051  -0.15950   0.18629   0.00148
   5        2PZ         0.00000   0.00000   0.00000   0.00000   0.00000
   6        3S         -0.00012  -0.00776   0.08205   0.31179   0.00015
   7        3PX         0.00000  -0.00000   0.00005  -0.00000   0.16056
   8        3PY         0.00039  -0.00129   0.01066   0.07900   0.00032
   9        3PZ         0.00000   0.00000   0.00000   0.00000   0.00000
  10        4XX        -0.00008  -0.00188  -0.01174   0.03010  -0.00011
  11        4YY        -0.00061  -0.00124   0.03183  -0.00172   0.00012
  12        4ZZ        -0.00003  -0.00265  -0.01488  -0.01402   0.00002
  13        4XY        -0.00000   0.00000  -0.00000   0.00012   0.01840
  14        4XZ         0.00000   0.00000   0.00000   0.00000   0.00000
  15        4YZ         0.00000   0.00000   0.00000   0.00000   0.00000
  16 2   H  1S         -0.00002  -0.00021   0.03171   0.18161   0.20060
  17        2S         -0.00013   0.00217  -0.00454   0.06260   0.12697
  18 3   H  1S         -0.00002  -0.00021   0.03186   0.18122  -0.20036
  19        2S         -0.00013   0.00217  -0.00443   0.06250  -0.12670
  20 4   O  1S          0.99475  -0.00030  -0.19735   0.08764  -0.00030
  21        2S          0.02084   0.00021   0.44557  -0.20153   0.00069
  22        2PX         0.00000  -0.00000  -0.00004  -0.00011   0.29562
  23        2PY         0.00143   0.00022   0.12497   0.13043  -0.00146
  24        2PZ         0.00000   0.00000   0.00000   0.00000   0.00000
  25        3S          0.00409  -0.00029   0.39377  -0.26115   0.00124
  26        3PX        -0.00000   0.00000  -0.00004  -0.00007   0.16532
  27        3PY        -0.00018  -0.00095   0.04967   0.06273  -0.00081
  28        3PZ         0.00000   0.00000   0.00000   0.00000   0.00000
  29        4XX        -0.00376  -0.00008  -0.00056  -0.00401   0.00003
  30        4YY        -0.00364  -0.00033   0.01974   0.00894  -0.00012
  31        4ZZ        -0.00411   0.00016  -0.00015  -0.00050   0.00003
  32        4XY        -0.00000   0.00000   0.00000   0.00000   0.02122
  33        4XZ         0.00000   0.00000   0.00000   0.00000   0.00000
  34        4YZ         0.00000   0.00000   0.00000   0.00000   0.00000
                           6         7         8         9        10
                           O         O         O         V         V
     Eigenvalues --    -0.62953  -0.50724  -0.44573   0.12404   0.25006
   1 1   C  1S         -0.02208   0.00000  -0.00007   0.00000  -0.12272
   2        2S          0.06499   0.00000   0.00005   0.00000   0.15113
   3        2PX         0.00146   0.00000  -0.19008   0.00000  -0.00003
   4        2PY        -0.37626   0.00000   0.00021   0.00000   0.20374
   5        2PZ         0.00000   0.31912   0.00000   0.40861   0.00000
   6        3S         -0.01966   0.00000   0.00057   0.00000   2.04976
   7        3PX         0.00065   0.00000  -0.02956   0.00000  -0.00111
   8        3PY        -0.09661   0.00000   0.00049   0.00000   0.74771
   9        3PZ         0.00000   0.22162   0.00000   0.68939   0.00000
  10        4XX        -0.02571   0.00000   0.00017   0.00000  -0.01232
  11        4YY         0.02021   0.00000  -0.00020   0.00000  -0.00466
  12        4ZZ        -0.00456   0.00000  -0.00000   0.00000  -0.00373
  13        4XY        -0.00007   0.00000  -0.05757   0.00000   0.00002
  14        4XZ         0.00000  -0.00000   0.00000  -0.00000   0.00000
  15        4YZ         0.00000  -0.03357   0.00000   0.03314   0.00000
  16 2   H  1S         -0.08874   0.00000  -0.16930   0.00000  -0.04234
  17        2S         -0.07230   0.00000  -0.21241   0.00000  -1.50827
  18 3   H  1S         -0.08931   0.00000   0.16973   0.00000  -0.04260
  19        2S         -0.07274   0.00000   0.21242   0.00000  -1.50533
  20 4   O  1S          0.06978   0.00000   0.00002   0.00000  -0.00028
  21        2S         -0.15246   0.00000  -0.00015   0.00000  -0.00964
  22        2PX         0.00142   0.00000   0.58064   0.00000  -0.00033
  23        2PY         0.50671   0.00000  -0.00077   0.00000  -0.05577
  24        2PZ         0.00000   0.48997   0.00000  -0.38076   0.00000
  25        3S         -0.32227   0.00000   0.00019   0.00000   0.08304
  26        3PX         0.00087   0.00000   0.44912   0.00000  -0.00051
  27        3PY         0.29121   0.00000  -0.00043   0.00000  -0.05653
  28        3PZ         0.00000   0.35967   0.00000  -0.51036   0.00000
  29        4XX        -0.00660   0.00000  -0.00001   0.00000  -0.00917
  30        4YY         0.03566   0.00000  -0.00003   0.00000   0.00028
  31        4ZZ        -0.00380   0.00000  -0.00003   0.00000   0.00168
  32        4XY         0.00010   0.00000   0.01979   0.00000  -0.00000
  33        4XZ         0.00000   0.00000   0.00000   0.00000   0.00000
  34        4YZ         0.00000   0.04051   0.00000  -0.00309   0.00000
                          11        12        13        14        15
                           V         V         V         V         V
     Eigenvalues --     0.33084   0.36931   0.73993   0.80115   0.83730
   1 1   C  1S         -0.00053   0.05911   0.00000  -0.07824   0.00036
   2        2S          0.00036  -0.00253   0.00000  -0.70224   0.00389
   3        2PX         0.42680   0.00441   0.00000  -0.00147  -0.72285
   4        2PY        -0.00035   0.07194   0.00000  -0.48068   0.00081
   5        2PZ         0.00000   0.00000  -1.07797   0.00000   0.00000
   6        3S          0.01174  -1.63872   0.00000   2.11939  -0.01543
   7        3PX         1.63386   0.01658   0.00000   0.00610   2.41182
   8        3PY        -0.01215   1.94928   0.00000   0.85347   0.00803
   9        3PZ         0.00000   0.00000   1.11127   0.00000   0.00000
  10        4XX         0.00023  -0.01972   0.00000  -0.18674   0.00155
  11        4YY        -0.00011   0.00049   0.00000  -0.10678  -0.00046
  12        4ZZ         0.00010  -0.00376   0.00000   0.06054  -0.00043
  13        4XY         0.00602   0.00005   0.00000  -0.00094  -0.07101
  14        4XZ         0.00000   0.00000  -0.00001   0.00000   0.00000
  15        4YZ         0.00000   0.00000   0.01783   0.00000   0.00000
  16 2   H  1S          0.03200  -0.01759   0.00000  -0.55035  -0.37129
  17        2S         -1.85472  -0.10128   0.00000  -0.37872  -0.99132
  18 3   H  1S         -0.03182  -0.01963   0.00000  -0.54509   0.37632
  19        2S          1.85791  -0.05734   0.00000  -0.37469   0.99370
  20 4   O  1S          0.00095  -0.10645   0.00000   0.02427  -0.00030
  21        2S         -0.00086   0.03920   0.00000  -0.29570   0.00236
  22        2PX        -0.11870  -0.00086   0.00000  -0.00233  -0.32851
  23        2PY        -0.00195   0.17923   0.00000  -0.08017  -0.00096
  24        2PZ         0.00000   0.00000  -0.01361   0.00000   0.00000
  25        3S         -0.01561   2.12377   0.00000   0.23667   0.00580
  26        3PX        -0.36855  -0.00327   0.00000  -0.00032  -0.27542
  27        3PY        -0.00773   0.95106   0.00000  -0.25516   0.00511
  28        3PZ         0.00000   0.00000  -0.10352   0.00000   0.00000
  29        4XX         0.00058  -0.07612   0.00000  -0.10175   0.00075
  30        4YY        -0.00014   0.00172   0.00000  -0.04294   0.00121
  31        4ZZ         0.00055  -0.07852   0.00000  -0.05511   0.00018
  32        4XY         0.00324   0.00005   0.00000   0.00024  -0.01879
  33        4XZ         0.00000   0.00000  -0.00000   0.00000   0.00000
  34        4YZ         0.00000   0.00000  -0.08279   0.00000   0.00000
                          16        17        18        19        20
                           V         V         V         V         V
     Eigenvalues --     0.90404   1.11162   1.11452   1.14991   1.27247
   1 1   C  1S          0.03360   0.05710  -0.00924   0.02101   0.00000
   2        2S         -0.90852   0.05683  -0.00823  -1.37886   0.00000
   3        2PX        -0.00401  -0.13246  -0.83349   0.00180   0.00000
   4        2PY         0.86157  -0.22510   0.03055  -0.50144   0.00000
   5        2PZ         0.00000   0.00000   0.00000   0.00000   0.06977
   6        3S          1.04755   0.26501  -0.03884   3.02716   0.00000
   7        3PX         0.00515   0.19305   1.20323  -0.00371   0.00000
   8        3PY        -0.55988   0.17958  -0.02382   0.58559   0.00000
   9        3PZ         0.00000   0.00000   0.00000   0.00000  -0.41814
  10        4XX        -0.15983  -0.01822   0.00204   0.06560   0.00000
  11        4YY         0.11933   0.27422  -0.04346  -0.15551   0.00000
  12        4ZZ        -0.06906  -0.11071   0.01812  -0.16476   0.00000
  13        4XY         0.00012   0.03367   0.21461   0.00069   0.00000
  14        4XZ         0.00000   0.00000   0.00000   0.00000  -0.00002
  15        4YZ         0.00000   0.00000   0.00000   0.00000   0.03688
  16 2   H  1S         -0.15195   0.29284   0.66722   0.59187   0.00000
  17        2S         -0.07034  -0.43960  -1.25725  -1.36356   0.00000
  18 3   H  1S         -0.15465   0.07413  -0.72574   0.59182   0.00000
  19        2S         -0.06315  -0.02735   1.32942  -1.36556   0.00000
  20 4   O  1S         -0.04249  -0.01729   0.00303   0.00827   0.00000
  21        2S          0.11702  -0.62655   0.09817   0.20131   0.00000
  22        2PX        -0.00036   0.02158   0.14843  -0.00007   0.00000
  23        2PY         0.35401   0.69869  -0.11183  -0.06124   0.00000
  24        2PZ         0.00000   0.00000   0.00000   0.00000  -0.98276
  25        3S         -0.24445   1.07564  -0.17069  -0.65433   0.00000
  26        3PX        -0.00001  -0.01822  -0.12336   0.00019   0.00000
  27        3PY         0.24709  -1.01165   0.15768  -0.01366   0.00000
  28        3PZ         0.00000   0.00000   0.00000   0.00000   1.19875
  29        4XX         0.05838  -0.23486   0.03675   0.07491   0.00000
  30        4YY        -0.20203  -0.32904   0.05271   0.07195   0.00000
  31        4ZZ         0.07347  -0.24294   0.03820   0.09435   0.00000
  32        4XY        -0.00033  -0.02284  -0.14538   0.00002   0.00000
  33        4XZ         0.00000   0.00000   0.00000   0.00000  -0.00001
  34        4YZ         0.00000   0.00000   0.00000   0.00000  -0.04339
                          21        22        23        24        25
                           V         V         V         V         V
     Eigenvalues --     1.33386   1.61118   1.77363   1.79272   2.01057
   1 1   C  1S          0.00010  -0.02294   0.00000   0.00000  -0.02938
   2        2S         -0.00128   0.05301   0.00000   0.00000  -0.16087
   3        2PX        -0.25338  -0.00158   0.00000   0.00000   0.00133
   4        2PY        -0.00086   0.18769   0.00000   0.00000  -0.00274
   5        2PZ         0.00000   0.00000   0.20355  -0.00059   0.00000
   6        3S          0.00478  -2.62134   0.00000   0.00000   0.94846
   7        3PX         1.53110   0.00719   0.00000   0.00000  -0.00248
   8        3PY         0.00540   1.61561   0.00000   0.00000  -0.00837
   9        3PZ         0.00000   0.00000  -0.12554   0.00034   0.00000
  10        4XX         0.00003   0.23232   0.00000   0.00000   0.35904
  11        4YY         0.00045  -0.23728   0.00000   0.00000   0.06149
  12        4ZZ        -0.00046  -0.02486   0.00000   0.00000  -0.46119
  13        4XY        -0.16407  -0.00039   0.00000   0.00000   0.00157
  14        4XZ         0.00000   0.00000   0.00239   0.84125   0.00000
  15        4YZ         0.00000   0.00000   0.68408  -0.00183   0.00000
  16 2   H  1S         -0.12418   0.08612   0.00000   0.00000  -0.29041
  17        2S         -0.67867  -0.01441   0.00000   0.00000  -0.14931
  18 3   H  1S          0.12404   0.08555   0.00000   0.00000  -0.28895
  19        2S          0.67396  -0.00427   0.00000   0.00000  -0.15304
  20 4   O  1S         -0.00003  -0.10225   0.00000   0.00000   0.00958
  21        2S          0.00074  -1.64639   0.00000   0.00000   0.17775
  22        2PX         0.87249   0.00089   0.00000   0.00000   0.00058
  23        2PY         0.00165  -0.39308   0.00000   0.00000   0.00275
  24        2PZ         0.00000   0.00000   0.13436  -0.00039   0.00000
  25        3S          0.00041   4.92379   0.00000   0.00000  -0.57916
  26        3PX        -1.45747  -0.00271   0.00000   0.00000   0.00002
  27        3PY        -0.00224   1.85556   0.00000   0.00000  -0.21489
  28        3PZ         0.00000   0.00000   0.11891  -0.00027   0.00000
  29        4XX         0.00021  -0.34502   0.00000   0.00000   0.73856
  30        4YY         0.00014  -0.58926   0.00000   0.00000   0.07598
  31        4ZZ        -0.00012  -0.41572   0.00000   0.00000  -0.72267
  32        4XY         0.12000   0.00056   0.00000   0.00000  -0.00254
  33        4XZ         0.00000   0.00000   0.00120   0.46008   0.00000
  34        4YZ         0.00000   0.00000  -0.53411   0.00157   0.00000
                          26        27        28        29        30
                           V         V         V         V         V
     Eigenvalues --     2.17594   2.22307   2.43351   2.58714   2.83077
   1 1   C  1S          0.00020   0.00000   0.07381   0.02626   0.00000
   2        2S          0.00080   0.00000   0.09069   0.05433   0.00000
   3        2PX         0.31649   0.00000  -0.00029  -0.00207   0.00000
   4        2PY         0.00151   0.00000  -0.03861   0.10359   0.00000
   5        2PZ         0.00000   0.00004   0.00000   0.00000  -0.22696
   6        3S         -0.00721   0.00000  -0.88478   0.17095   0.00000
   7        3PX         0.93415   0.00000   0.00270  -0.00710   0.00000
   8        3PY         0.00984   0.00000   0.16579   0.35095   0.00000
   9        3PZ         0.00000   0.00000   0.00000   0.00000  -0.25925
  10        4XX         0.00206   0.00000  -0.29843   0.99866   0.00000
  11        4YY        -0.00314   0.00000  -0.47915  -0.84227   0.00000
  12        4ZZ         0.00170   0.00000   1.04802  -0.01732   0.00000
  13        4XY         0.53386   0.00000   0.00142  -0.00156   0.00000
  14        4XZ         0.00000  -0.55068   0.00000   0.00000  -0.00012
  15        4YZ         0.00000  -0.00002   0.00000   0.00000   0.92369
  16 2   H  1S         -0.63766   0.00000   0.34820  -0.41704   0.00000
  17        2S         -0.19750   0.00000   0.05228   0.03804   0.00000
  18 3   H  1S          0.63468   0.00000   0.34997  -0.42763   0.00000
  19        2S          0.19706   0.00000   0.05476   0.03661   0.00000
  20 4   O  1S         -0.00030   0.00000  -0.00550  -0.00554   0.00000
  21        2S         -0.00165   0.00000   0.08393   0.48607   0.00000
  22        2PX         0.26938   0.00000   0.00002  -0.00111   0.00000
  23        2PY         0.00254   0.00000   0.30973   0.55369   0.00000
  24        2PZ         0.00000   0.00002   0.00000   0.00000  -0.02716
  25        3S          0.01269   0.00000   0.32984  -0.32724   0.00000
  26        3PX        -0.49419   0.00000  -0.00015   0.00348   0.00000
  27        3PY         0.00253   0.00000  -0.01450  -0.34834   0.00000
  28        3PZ         0.00000  -0.00003   0.00000   0.00000   0.43820
  29        4XX        -0.00300   0.00000   0.55222  -0.06409   0.00000
  30        4YY        -0.00114   0.00000  -0.12099  -0.00596   0.00000
  31        4ZZ         0.00314   0.00000  -0.27859   0.39076   0.00000
  32        4XY        -0.70568   0.00000   0.00165   0.00299   0.00000
  33        4XZ         0.00000   0.89403   0.00000   0.00000   0.00004
  34        4YZ         0.00000  -0.00014   0.00000   0.00000   1.00366
                          31        32        33        34
                           V         V         V         V
     Eigenvalues --     2.94956   3.23424   4.06930   4.47977
   1 1   C  1S         -0.00041  -0.01240  -0.00080  -0.46796
   2        2S         -0.00033  -1.07602  -0.08701   2.98602
   3        2PX        -0.04657  -0.00033  -0.00019   0.00012
   4        2PY         0.00252   1.23936  -0.06133   0.26861
   5        2PZ         0.00000   0.00000   0.00000   0.00000
   6        3S          0.00033  -1.39923  -1.60931   1.20036
   7        3PX        -0.21880   0.00237   0.00398   0.00036
   8        3PY         0.00200   0.76919   0.90539   0.35986
   9        3PZ         0.00000   0.00000   0.00000   0.00000
  10        4XX        -0.00005   0.30178   0.01049  -1.82430
  11        4YY        -0.00011  -0.78423   0.13674  -2.13836
  12        4ZZ        -0.00238   0.39967   0.12401  -1.71873
  13        4XY         1.09782  -0.00155   0.00003  -0.00076
  14        4XZ         0.00000   0.00000   0.00000   0.00000
  15        4YZ         0.00000   0.00000   0.00000   0.00000
  16 2   H  1S         -0.40020   0.05542   0.09111   0.21421
  17        2S          0.26885   0.00468  -0.00463  -0.46725
  18 3   H  1S          0.39526   0.05382   0.09233   0.21364
  19        2S         -0.26848   0.00879   0.00017  -0.46581
  20 4   O  1S         -0.00019  -0.05958  -0.49942  -0.02372
  21        2S         -0.00124  -0.70244   0.04714  -0.00207
  22        2PX         0.02287   0.00007   0.00028   0.00009
  23        2PY        -0.00017   0.22581  -0.23695   0.22508
  24        2PZ         0.00000   0.00000   0.00000   0.00000
  25        3S          0.00489   2.76041   4.77509   0.43865
  26        3PX         0.34638  -0.00100  -0.00131  -0.00070
  27        3PY         0.00246   1.66534   0.94729   0.41309
  28        3PZ         0.00000   0.00000   0.00000   0.00000
  29        4XX        -0.00192  -0.70335  -1.70359  -0.10526
  30        4YY         0.00175   1.41127  -1.51015   0.33071
  31        4ZZ        -0.00120  -0.72341  -1.71516  -0.15355
  32        4XY         0.89735  -0.00125  -0.00053  -0.00055
  33        4XZ         0.00000   0.00000   0.00000   0.00000
  34        4YZ         0.00000   0.00000   0.00000   0.00000
     Density Matrix:
                           1         2         3         4         5
   1 1   C  1S          2.06054
   2        2S         -0.10645   0.32946
   3        2PX         0.00003   0.00000   0.44136
   4        2PY        -0.01169   0.01473   0.00006   0.40343
   5        2PZ         0.00000   0.00000   0.00000   0.00000   0.20368
   6        3S         -0.13457   0.24513  -0.00024   0.10480   0.00000
   7        3PX        -0.00003   0.00008   0.14919  -0.00005   0.00000
   8        3PY        -0.02655   0.04613  -0.00021   0.09874   0.00000
   9        3PZ         0.00000   0.00000   0.00000   0.00000   0.14145
  10        4XX        -0.01002   0.01253  -0.00024   0.03431   0.00000
  11        4YY        -0.00958   0.01429   0.00023  -0.02600  -0.00000
  12        4ZZ         0.00271  -0.01643   0.00001   0.00296  -0.00000
  13        4XY        -0.00002   0.00007   0.03770   0.00013  -0.00000
  14        4XZ         0.00000  -0.00000   0.00000   0.00000  -0.00000
  15        4YZ         0.00000   0.00000  -0.00000  -0.00000  -0.02143
  16 2   H  1S         -0.06295   0.12640   0.23640   0.12485   0.00000
  17        2S         -0.01206   0.03197   0.18962   0.07947   0.00000
  18 3   H  1S         -0.06288   0.12621  -0.23698   0.12404   0.00000
  19        2S         -0.01211   0.03196  -0.18984   0.07915   0.00000
  20 4   O  1S          0.00953  -0.00957  -0.00006   0.04296   0.00000
  21        2S         -0.02147   0.02209   0.00020  -0.10249   0.00000
  22        2PX        -0.00009   0.00012   0.03327   0.00001   0.00000
  23        2PY        -0.09143   0.20642   0.00047  -0.37258   0.00000
  24        2PZ         0.00000   0.00000   0.00000   0.00000   0.31273
  25        3S          0.01567  -0.06212   0.00007   0.01961   0.00000
  26        3PX        -0.00006   0.00008  -0.02869   0.00001   0.00000
  27        3PY        -0.04596   0.10117   0.00029  -0.21162   0.00000
  28        3PZ         0.00000   0.00000   0.00000   0.00000   0.22956
  29        4XX         0.00157  -0.00386   0.00001   0.00365   0.00000
  30        4YY        -0.00937   0.01878   0.00001  -0.02980  -0.00000
  31        4ZZ         0.00069  -0.00090   0.00002   0.00272   0.00000
  32        4XY        -0.00001   0.00002   0.01071  -0.00001   0.00000
  33        4XZ         0.00000  -0.00000   0.00000   0.00000   0.00000
  34        4YZ         0.00000   0.00000   0.00000  -0.00000   0.02586
                           6         7         8         9        10
   6        3S          0.20879
   7        3PX        -0.00000   0.05331
   8        3PY         0.05484  -0.00005   0.03138
   9        3PZ         0.00000   0.00000   0.00000   0.09824
  10        4XX         0.01788  -0.00008   0.00948   0.00000   0.00342
  11        4YY         0.00338   0.00008  -0.00350   0.00000  -0.00189
  12        4ZZ        -0.01096  -0.00000  -0.00164  -0.00000  -0.00025
  13        4XY         0.00002   0.00931  -0.00001  -0.00000  -0.00001
  14        4XZ        -0.00000   0.00000   0.00000  -0.00000   0.00000
  15        4YZ         0.00000  -0.00000   0.00000  -0.01488   0.00000
  16 2   H  1S          0.12181   0.07431   0.04648   0.00000   0.01465
  17        2S          0.04090   0.05324   0.02363   0.00000   0.00749
  18 3   H  1S          0.12189  -0.07449   0.04661   0.00000   0.01486
  19        2S          0.04128  -0.05334   0.02396   0.00000   0.00770
  20 4   O  1S          0.01930  -0.00003  -0.00306   0.00000   0.00617
  21        2S         -0.04656   0.00008   0.00713   0.00000  -0.01476
  22        2PX         0.00062   0.06061   0.00046   0.00000   0.00005
  23        2PY         0.08191   0.00025  -0.07463   0.00000  -0.02114
  24        2PZ         0.00000   0.00000   0.00000   0.21718  -0.00000
  25        3S         -0.08555   0.00001   0.02941   0.00000  -0.00840
  26        3PX         0.00048   0.02654   0.00037   0.00000   0.00007
  27        3PY         0.03583   0.00015  -0.04530   0.00000  -0.01236
  28        3PZ         0.00000   0.00000   0.00000   0.15942  -0.00000
  29        4XX        -0.00233   0.00000   0.00063   0.00000   0.00011
  30        4YY         0.00742   0.00001  -0.00506  -0.00000  -0.00176
  31        4ZZ        -0.00019   0.00001   0.00065   0.00000   0.00017
  32        4XY         0.00003   0.00565   0.00001   0.00000  -0.00000
  33        4XZ        -0.00000   0.00000   0.00000   0.00000  -0.00000
  34        4YZ         0.00000   0.00000  -0.00000   0.01796  -0.00000
                          11        12        13        14        15
  11        4YY         0.00285
  12        4ZZ        -0.00108   0.00089
  13        4XY         0.00002  -0.00000   0.00731
  14        4XZ        -0.00000   0.00000   0.00000   0.00000
  15        4YZ        -0.00000   0.00000   0.00000   0.00000   0.00225
  16 2   H  1S         -0.00208  -0.00522   0.02693   0.00000   0.00000
  17        2S         -0.00332  -0.00097   0.02915   0.00000   0.00000
  18 3   H  1S         -0.00232  -0.00522  -0.02686   0.00000   0.00000
  19        2S         -0.00356  -0.00097  -0.02910   0.00000   0.00000
  20 4   O  1S         -0.01126   0.00272  -0.00000   0.00000   0.00000
  21        2S          0.02286  -0.00623   0.00001  -0.00000   0.00000
  22        2PX        -0.00010   0.00000  -0.05597  -0.00000  -0.00000
  23        2PY         0.02799  -0.01200   0.00000  -0.00000   0.00000
  24        2PZ         0.00000  -0.00000  -0.00000  -0.00000  -0.03290
  25        3S          0.01293  -0.00146   0.00000  -0.00000   0.00000
  26        3PX        -0.00011   0.00000  -0.04563  -0.00000  -0.00000
  27        3PY         0.01472  -0.00589  -0.00000  -0.00000   0.00000
  28        3PZ         0.00000  -0.00000  -0.00000  -0.00000  -0.02415
  29        4XX        -0.00028   0.00019   0.00000   0.00000  -0.00000
  30        4YY         0.00267  -0.00116  -0.00000  -0.00000   0.00000
  31        4ZZ        -0.00016   0.00005   0.00000   0.00000  -0.00000
  32        4XY         0.00000  -0.00000  -0.00150  -0.00000  -0.00000
  33        4XZ         0.00000  -0.00000  -0.00000  -0.00000  -0.00000
  34        4YZ         0.00000  -0.00000  -0.00000  -0.00000  -0.00272
                          16        17        18        19        20
  16 2   H  1S          0.22153
  17        2S          0.15815   0.14083
  18 3   H  1S         -0.05416  -0.08767   0.22157
  19        2S         -0.08743  -0.10402   0.15824   0.14079
  20 4   O  1S          0.00677   0.00233   0.00681   0.00238   2.08205
  21        2S         -0.01756  -0.00700  -0.01774  -0.00720  -0.19102
  22        2PX        -0.07830  -0.17182   0.07835   0.17154   0.00004
  23        2PY        -0.03496  -0.05812  -0.03494  -0.05848   0.04709
  24        2PZ         0.00000   0.00000   0.00000   0.00000   0.00000
  25        3S         -0.01225   0.01056  -0.01243   0.01052  -0.23804
  26        3PX        -0.08593  -0.14895   0.08603   0.14877   0.00004
  27        3PY        -0.02593  -0.03474  -0.02593  -0.03494   0.03167
  28        3PZ         0.00000   0.00000   0.00000   0.00000   0.00000
  29        4XX        -0.00031   0.00047  -0.00033   0.00045  -0.00888
  30        4YY        -0.00187  -0.00424  -0.00183  -0.00423  -0.00849
  31        4ZZ         0.00050   0.00051   0.00047   0.00047  -0.00874
  32        4XY         0.00180  -0.00303  -0.00180   0.00301   0.00000
  33        4XZ         0.00000   0.00000   0.00000   0.00000   0.00000
  34        4YZ         0.00000   0.00000   0.00000   0.00000   0.00000
                          21        22        23        24        25
  21        2S          0.52565
  22        2PX        -0.00019   0.84907
  23        2PY        -0.09565  -0.00035   0.57878
  24        2PZ         0.00000   0.00000   0.00000   0.48015
  25        3S          0.55461   0.00006  -0.29629   0.00000   0.65428
  26        3PX        -0.00017   0.61930  -0.00032   0.00000   0.00003
  27        3PY        -0.06982  -0.00017   0.32390   0.00000  -0.18135
  28        3PZ         0.00000   0.00000   0.00000   0.35246   0.00000
  29        4XX         0.00297  -0.00001  -0.00788  -0.00000   0.00587
  30        4YY         0.00297  -0.00000   0.04339  -0.00000  -0.01213
  31        4ZZ         0.00106  -0.00003  -0.00403   0.00000   0.00256
  32        4XY        -0.00001   0.03553   0.00002   0.00000  -0.00001
  33        4XZ         0.00000   0.00000  -0.00000   0.00000   0.00000
  34        4YZ         0.00000   0.00000   0.00000   0.03970  -0.00000
                          26        27        28        29        30
  26        3PX         0.45807
  27        3PY        -0.00016   0.18242
  28        3PZ         0.00000   0.00000   0.25872
  29        4XX        -0.00001  -0.00440  -0.00000   0.00015
  30        4YY        -0.00001   0.02385  -0.00000  -0.00054   0.00351
  31        4ZZ        -0.00002  -0.00229   0.00000   0.00009  -0.00026
  32        4XY         0.02479   0.00001   0.00000  -0.00000   0.00000
  33        4XZ         0.00000  -0.00000   0.00000   0.00000  -0.00000
  34        4YZ         0.00000   0.00000   0.02914   0.00000  -0.00000
                          31        32        33        34
  31        4ZZ         0.00006
  32        4XY        -0.00000   0.00168
  33        4XZ         0.00000   0.00000   0.00000
  34        4YZ         0.00000   0.00000   0.00000   0.00328
    Full Mulliken population analysis:
                           1         2         3         4         5
   1 1   C  1S          2.06054
   2        2S         -0.02332   0.32946
   3        2PX         0.00000   0.00000   0.44136
   4        2PY         0.00000   0.00000   0.00000   0.40343
   5        2PZ         0.00000   0.00000   0.00000   0.00000   0.20368
   6        3S         -0.02480   0.19911   0.00000   0.00000   0.00000
   7        3PX         0.00000   0.00000   0.08500   0.00000   0.00000
   8        3PY         0.00000   0.00000   0.00000   0.05626   0.00000
   9        3PZ         0.00000   0.00000   0.00000   0.00000   0.08059
  10        4XX        -0.00079   0.00890   0.00000   0.00000   0.00000
  11        4YY        -0.00076   0.01015   0.00000   0.00000   0.00000
  12        4ZZ         0.00021  -0.01167   0.00000   0.00000   0.00000
  13        4XY         0.00000   0.00000   0.00000   0.00000   0.00000
  14        4XZ         0.00000  -0.00000   0.00000   0.00000   0.00000
  15        4YZ         0.00000   0.00000   0.00000   0.00000   0.00000
  16 2   H  1S         -0.00225   0.03621   0.07804   0.02401   0.00000
  17        2S         -0.00114   0.01551   0.04359   0.01064   0.00000
  18 3   H  1S         -0.00225   0.03615   0.07850   0.02361   0.00000
  19        2S         -0.00114   0.01551   0.04379   0.01049   0.00000
  20 4   O  1S          0.00000  -0.00016  -0.00000  -0.00159   0.00000
  21        2S         -0.00013   0.00332   0.00000   0.02502   0.00000
  22        2PX         0.00000  -0.00000   0.00255   0.00000   0.00000
  23        2PY        -0.00133   0.03789   0.00000   0.09623   0.00000
  24        2PZ         0.00000   0.00000   0.00000   0.00000   0.02400
  25        3S          0.00094  -0.02161   0.00000  -0.00634   0.00000
  26        3PX         0.00000  -0.00000  -0.00751   0.00000   0.00000
  27        3PY        -0.00644   0.05651   0.00000   0.06186   0.00000
  28        3PZ         0.00000   0.00000   0.00000   0.00000   0.06008
  29        4XX         0.00000  -0.00046  -0.00000  -0.00064  -0.00000
  30        4YY        -0.00075   0.00728   0.00000   0.01329   0.00000
  31        4ZZ         0.00000  -0.00011   0.00000  -0.00047   0.00000
  32        4XY         0.00000  -0.00000   0.00245  -0.00000   0.00000
  33        4XZ         0.00000  -0.00000   0.00000  -0.00000  -0.00000
  34        4YZ         0.00000   0.00000   0.00000   0.00000   0.00592
                           6         7         8         9        10
   6        3S          0.20879
   7        3PX         0.00000   0.05331
   8        3PY         0.00000   0.00000   0.03138
   9        3PZ         0.00000   0.00000   0.00000   0.09824
  10        4XX         0.01127   0.00000   0.00000   0.00000   0.00342
  11        4YY         0.00213   0.00000   0.00000   0.00000  -0.00063
  12        4ZZ        -0.00691   0.00000   0.00000   0.00000  -0.00008
  13        4XY         0.00000   0.00000   0.00000   0.00000   0.00000
  14        4XZ        -0.00000   0.00000   0.00000   0.00000   0.00000
  15        4YZ         0.00000   0.00000   0.00000   0.00000   0.00000
  16 2   H  1S          0.04690   0.03315   0.01208   0.00000   0.00562
  17        2S          0.02918   0.02665   0.00689   0.00000   0.00313
  18 3   H  1S          0.04693   0.03335   0.01199   0.00000   0.00573
  19        2S          0.02945   0.02679   0.00692   0.00000   0.00322
  20 4   O  1S          0.00091  -0.00000   0.00028   0.00000   0.00000
  21        2S         -0.01267   0.00000  -0.00322   0.00000  -0.00066
  22        2PX        -0.00000   0.00890   0.00000   0.00000   0.00000
  23        2PY         0.01175   0.00000   0.00719   0.00000  -0.00135
  24        2PZ         0.00000   0.00000   0.00000   0.03190  -0.00000
  25        3S         -0.04564   0.00000  -0.01886   0.00000  -0.00187
  26        3PX        -0.00000   0.01378   0.00000   0.00000  -0.00000
  27        3PY         0.01817   0.00000   0.00410   0.00000  -0.00510
  28        3PZ         0.00000   0.00000   0.00000   0.08276  -0.00000
  29        4XX        -0.00067   0.00000  -0.00029  -0.00000   0.00001
  30        4YY         0.00283   0.00000   0.00213   0.00000  -0.00034
  31        4ZZ        -0.00005   0.00000  -0.00030  -0.00000   0.00001
  32        4XY        -0.00000   0.00095   0.00000   0.00000  -0.00000
  33        4XZ        -0.00000   0.00000  -0.00000  -0.00000  -0.00000
  34        4YZ         0.00000   0.00000   0.00000   0.00303  -0.00000
                          11        12        13        14        15
  11        4YY         0.00285
  12        4ZZ        -0.00036   0.00089
  13        4XY         0.00000   0.00000   0.00731
  14        4XZ         0.00000   0.00000  -0.00000   0.00000
  15        4YZ         0.00000   0.00000   0.00000   0.00000   0.00225
  16 2   H  1S         -0.00044  -0.00065   0.00705   0.00000   0.00000
  17        2S         -0.00126  -0.00035   0.00174   0.00000   0.00000
  18 3   H  1S         -0.00049  -0.00065   0.00698   0.00000   0.00000
  19        2S         -0.00135  -0.00035   0.00173   0.00000   0.00000
  20 4   O  1S         -0.00055   0.00000   0.00000   0.00000   0.00000
  21        2S          0.00720  -0.00028  -0.00000  -0.00000   0.00000
  22        2PX         0.00000  -0.00000   0.00847   0.00000   0.00000
  23        2PY         0.00986  -0.00076  -0.00000  -0.00000   0.00000
  24        2PZ         0.00000   0.00000   0.00000  -0.00000   0.00498
  25        3S          0.00511  -0.00033  -0.00000  -0.00000   0.00000
  26        3PX         0.00000  -0.00000   0.01100   0.00000   0.00000
  27        3PY         0.00665  -0.00243   0.00000  -0.00000   0.00000
  28        3PZ         0.00000  -0.00000   0.00000  -0.00000   0.00582
  29        4XX        -0.00005   0.00001   0.00000   0.00000  -0.00000
  30        4YY         0.00134  -0.00022   0.00000  -0.00000   0.00000
  31        4ZZ        -0.00003   0.00001  -0.00000   0.00000  -0.00000
  32        4XY        -0.00000   0.00000   0.00055   0.00000   0.00000
  33        4XZ        -0.00000  -0.00000   0.00000  -0.00000  -0.00000
  34        4YZ         0.00000   0.00000   0.00000  -0.00000   0.00100
                          16        17        18        19        20
  16 2   H  1S          0.22153
  17        2S          0.10411   0.14083
  18 3   H  1S         -0.00073  -0.01157   0.22157
  19        2S         -0.01154  -0.03873   0.10417   0.14079
  20 4   O  1S          0.00000   0.00003   0.00000   0.00003   2.08205
  21        2S         -0.00005  -0.00056  -0.00005  -0.00058  -0.04464
  22        2PX        -0.00020  -0.00499  -0.00021  -0.00504   0.00000
  23        2PY        -0.00018  -0.00328  -0.00018  -0.00332   0.00000
  24        2PZ         0.00000   0.00000   0.00000   0.00000   0.00000
  25        3S         -0.00058   0.00231  -0.00059   0.00231  -0.03982
  26        3PX        -0.00529  -0.02208  -0.00536  -0.02224   0.00000
  27        3PY        -0.00310  -0.01001  -0.00312  -0.01009   0.00000
  28        3PZ         0.00000   0.00000   0.00000   0.00000   0.00000
  29        4XX        -0.00000   0.00005  -0.00000   0.00005  -0.00030
  30        4YY        -0.00004  -0.00060  -0.00004  -0.00060  -0.00028
  31        4ZZ         0.00000   0.00004   0.00000   0.00004  -0.00029
  32        4XY         0.00003  -0.00015   0.00003  -0.00015   0.00000
  33        4XZ         0.00000   0.00000   0.00000   0.00000   0.00000
  34        4YZ         0.00000   0.00000   0.00000   0.00000   0.00000
                          21        22        23        24        25
  21        2S          0.52565
  22        2PX         0.00000   0.84907
  23        2PY         0.00000   0.00000   0.57878
  24        2PZ         0.00000   0.00000   0.00000   0.48015
  25        3S          0.42352   0.00000   0.00000   0.00000   0.65428
  26        3PX         0.00000   0.31059   0.00000   0.00000   0.00000
  27        3PY         0.00000   0.00000   0.16244   0.00000   0.00000
  28        3PZ         0.00000   0.00000   0.00000   0.17677   0.00000
  29        4XX         0.00162   0.00000   0.00000   0.00000   0.00411
  30        4YY         0.00162   0.00000   0.00000   0.00000  -0.00848
  31        4ZZ         0.00058   0.00000   0.00000   0.00000   0.00179
  32        4XY        -0.00000   0.00000   0.00000   0.00000  -0.00000
  33        4XZ         0.00000   0.00000   0.00000   0.00000   0.00000
  34        4YZ         0.00000   0.00000   0.00000   0.00000  -0.00000
                          26        27        28        29        30
  26        3PX         0.45807
  27        3PY         0.00000   0.18242
  28        3PZ         0.00000   0.00000   0.25872
  29        4XX         0.00000   0.00000   0.00000   0.00015
  30        4YY         0.00000   0.00000   0.00000  -0.00018   0.00351
  31        4ZZ         0.00000   0.00000   0.00000   0.00003  -0.00009
  32        4XY         0.00000   0.00000   0.00000   0.00000   0.00000
  33        4XZ         0.00000   0.00000   0.00000   0.00000   0.00000
  34        4YZ         0.00000   0.00000   0.00000   0.00000   0.00000
                          31        32        33        34
  31        4ZZ         0.00006
  32        4XY         0.00000   0.00168
  33        4XZ         0.00000  -0.00000   0.00000
  34        4YZ         0.00000   0.00000   0.00000   0.00328
     Gross orbital populations:
                           1
   1 1   C  1S          1.99661
   2        2S          0.69867
   3        2PX         0.76777
   4        2PY         0.71581
   5        2PZ         0.37427
   6        3S          0.51669
   7        3PX         0.28187
   8        3PY         0.11654
   9        3PZ         0.29652
  10        4XX         0.03048
  11        4YY         0.03938
  12        4ZZ        -0.02391
  13        4XY         0.04482
  14        4XZ         0.00000
  15        4YZ         0.01405
  16 2   H  1S          0.54368
  17        2S          0.28998
  18 3   H  1S          0.54376
  19        2S          0.29017
  20 4   O  1S          1.99565
  21        2S          0.92569
  22        2PX         1.16914
  23        2PY         0.89375
  24        2PZ         0.71779
  25        3S          0.95022
  26        3PX         0.73096
  27        3PY         0.45186
  28        3PZ         0.58415
  29        4XX         0.00343
  30        4YY         0.02036
  31        4ZZ         0.00122
  32        4XY         0.00540
  33        4XZ         0.00000
  34        4YZ         0.01323
          Condensed to atoms (all electrons):
               1          2          3          4
     1  C    4.615526   0.374316   0.374911   0.504800
     2  H    0.374316   0.570570  -0.062569  -0.048659
     3  H    0.374911  -0.062569   0.570697  -0.049117
     4  O    0.504800  -0.048659  -0.049117   8.055842
 Mulliken charges:
               1
     1  C    0.130447
     2  H    0.166342
     3  H    0.166077
     4  O   -0.462866
 Sum of Mulliken charges =  -0.00000
 Mulliken charges with hydrogens summed into heavy atoms:
               1
     1  C    0.462866
     4  O   -0.462866
 Electronic spatial extent (au):  <R**2>=             61.1352
 Charge=             -0.0000 electrons
 Dipole moment (field-independent basis, Debye):
    X=              0.0006    Y=              3.0337    Z=              0.0000  Tot=              3.0337
 Quadrupole moment (field-independent basis, Debye-Ang):
   XX=            -11.2942   YY=            -11.7780   ZZ=            -11.5999
   XY=              0.0060   XZ=              0.0000   YZ=              0.0000
 Traceless Quadrupole moment (field-independent basis, Debye-Ang):
   XX=              0.2632   YY=             -0.2206   ZZ=             -0.0426
   XY=              0.0060   XZ=              0.0000   YZ=              0.0000
 Octapole moment (field-independent basis, Debye-Ang**2):
  XXX=             -0.0045  YYY=              0.2261  ZZZ=             -0.0000  XYY=              0.0095
  XXY=              0.7459  XXZ=              0.0000  XZZ=              0.0006  YZZ=             -0.4921
  YYZ=              0.0000  XYZ=              0.0000
 Hexadecapole moment (field-independent basis, Debye-Ang**3):
 XXXX=            -16.3131 YYYY=            -44.6783 ZZZZ=             -9.5543 XXXY=             -0.0018
 XXXZ=             -0.0000 YYYX=              0.0168 YYYZ=             -0.0000 ZZZX=             -0.0000
 ZZZY=             -0.0000 XXYY=             -9.6167 XXZZ=             -4.5942 YYZZ=             -9.0471
 XXYZ=             -0.0000 YYXZ=              0.0000 ZZXY=             -0.0002
 N-N= 3.059827790710D+01 E-N=-3.294152348118D+02  KE= 1.134154411124D+02
 Symmetry A'   KE= 1.099986526691D+02
 Symmetry A"   KE= 3.416788443248D+00
 Orbital energies and kinetic energies (alpha):
                                 1                 2
   1         O               -20.583814         29.152635
   2         O               -11.342805         16.007622
   3         O                -1.368126          2.619273
   4         O                -0.884112          1.622955
   5         O                -0.694064          1.254129
   6         O                -0.629529          2.205871
   7         O                -0.507237          1.708394
   8         O                -0.445728          2.136841
   9         V                 0.124038          1.548935
  10         V                 0.250061          0.883439
  11         V                 0.330841          0.935915
  12         V                 0.369306          1.210907
  13         V                 0.739930          2.180686
  14         V                 0.801152          1.715138
  15         V                 0.837301          1.850552
  16         V                 0.904039          3.036269
  17         V                 1.111620          2.756407
  18         V                 1.114523          2.760391
  19         V                 1.149907          2.599655
  20         V                 1.272474          3.726279
  21         V                 1.333862          3.253681
  22         V                 1.611184          2.596373
  23         V                 1.773633          2.741050
  24         V                 1.792724          2.654121
  25         V                 2.010566          2.780783
  26         V                 2.175940          3.366699
  27         V                 2.223075          2.985561
  28         V                 2.433510          3.564942
  29         V                 2.587141          4.255761
  30         V                 2.830770          3.719863
  31         V                 2.949558          3.913183
  32         V                 3.234241          4.883115
  33         V                 4.069298         10.158081
  34         V                 4.479767          9.972846
 Total kinetic energy from orbitals= 1.134154411124D+02

 Test job not archived.
 1\1\GINC-NODE127\SP\RMP2-FC\6-31G(d)\C1H2O1\ROOT\13-Dec-2021\0\\# RMP2
 /6-31g(d) geom=connectivity pop=full test\\Single Point Energy Calcula
 tion for Formaldehyde using RHF\\0,1\C\H,1,1.07\H,1,1.07,2,119.8865269
 4\O,1,1.2584,3,119.88652694,2,180.,0\\Version=EM64L-G16RevA.03\State=1
 -A'\HF=-113.8570329\MP2=-114.1645251\RMSD=4.822e-09\PG=CS [SG(C1H2O1)]
 \\@


      TO SUSPECT YOUR OWN MORTALITY IS TO KNOW THE BEGINNING OF TERROR.
      TO LEARN IRREFUTABLY THAT YOU ARE MORTAL IS TO KNOW THE END
      OF TERROR.

                                                  -- JESSICA
                                                     CHILDREN OF DUNE
                                                     BY FRANK HERBERT
 Job cpu time:       0 days  0 hours  0 minutes 18.2 seconds.
 Elapsed time:       0 days  0 hours  0 minutes  3.1 seconds.
 File lengths (MBytes):  RWF=     72 Int=      0 D2E=      0 Chk=      8 Scr=      8
 Normal termination of Gaussian 16 at Mon Dec 13 11:09:16 2021.
