 Entering Gaussian System, Link 0=g16
 Input=/home/amkiny01/CHEM_555/gaussian_book_practice_exercises/single_point_energy/fullerene.com
 Output=/home/amkiny01/CHEM_555/gaussian_book_practice_exercises/single_point_energy/fullerene.log
 Initial command:
 /usr/local/g16reva03/legacy_cpu/g16/l1.exe "/scratch/global/g16/Gau-28467.inp" -scrdir="/scratch/global/g16/"
 Entering Link 1 = /usr/local/g16reva03/legacy_cpu/g16/l1.exe PID=     28469.
  
 Copyright (c) 1988,1990,1992,1993,1995,1998,2003,2009,2016,
            Gaussian, Inc.  All Rights Reserved.
  
 This is part of the Gaussian(R) 16 program.  It is based on
 the Gaussian(R) 09 system (copyright 2009, Gaussian, Inc.),
 the Gaussian(R) 03 system (copyright 2003, Gaussian, Inc.),
 the Gaussian(R) 98 system (copyright 1998, Gaussian, Inc.),
 the Gaussian(R) 94 system (copyright 1995, Gaussian, Inc.),
 the Gaussian 92(TM) system (copyright 1992, Gaussian, Inc.),
 the Gaussian 90(TM) system (copyright 1990, Gaussian, Inc.),
 the Gaussian 88(TM) system (copyright 1988, Gaussian, Inc.),
 the Gaussian 86(TM) system (copyright 1986, Carnegie Mellon
 University), and the Gaussian 82(TM) system (copyright 1983,
 Carnegie Mellon University). Gaussian is a federally registered
 trademark of Gaussian, Inc.
  
 This software contains proprietary and confidential information,
 including trade secrets, belonging to Gaussian, Inc.
  
 This software is provided under written license and may be
 used, copied, transmitted, or stored only in accord with that
 written license.
  
 The following legend is applicable only to US Government
 contracts under FAR:
  
                    RESTRICTED RIGHTS LEGEND
  
 Use, reproduction and disclosure by the US Government is
 subject to restrictions as set forth in subparagraphs (a)
 and (c) of the Commercial Computer Software - Restricted
 Rights clause in FAR 52.227-19.
  
 Gaussian, Inc.
 340 Quinnipiac St., Bldg. 40, Wallingford CT 06492
  
  
 ---------------------------------------------------------------
 Warning -- This program may not be used in any manner that
 competes with the business of Gaussian, Inc. or will provide
 assistance to any competitor of Gaussian, Inc.  The licensee
 of this program is prohibited from giving any competitor of
 Gaussian, Inc. access to this program.  By using this program,
 the user acknowledges that Gaussian, Inc. is engaged in the
 business of creating and licensing software in the field of
 computational chemistry and represents and warrants to the
 licensee that it is not a competitor of Gaussian, Inc. and that
 it will not use this program in any manner prohibited above.
 ---------------------------------------------------------------
  

 Cite this work as:
 Gaussian 16, Revision A.03,
 M. J. Frisch, G. W. Trucks, H. B. Schlegel, G. E. Scuseria, 
 M. A. Robb, J. R. Cheeseman, G. Scalmani, V. Barone, 
 G. A. Petersson, H. Nakatsuji, X. Li, M. Caricato, A. V. Marenich, 
 J. Bloino, B. G. Janesko, R. Gomperts, B. Mennucci, H. P. Hratchian, 
 J. V. Ortiz, A. F. Izmaylov, J. L. Sonnenberg, D. Williams-Young, 
 F. Ding, F. Lipparini, F. Egidi, J. Goings, B. Peng, A. Petrone, 
 T. Henderson, D. Ranasinghe, V. G. Zakrzewski, J. Gao, N. Rega, 
 G. Zheng, W. Liang, M. Hada, M. Ehara, K. Toyota, R. Fukuda, 
 J. Hasegawa, M. Ishida, T. Nakajima, Y. Honda, O. Kitao, H. Nakai, 
 T. Vreven, K. Throssell, J. A. Montgomery, Jr., J. E. Peralta, 
 F. Ogliaro, M. J. Bearpark, J. J. Heyd, E. N. Brothers, K. N. Kudin, 
 V. N. Staroverov, T. A. Keith, R. Kobayashi, J. Normand, 
 K. Raghavachari, A. P. Rendell, J. C. Burant, S. S. Iyengar, 
 J. Tomasi, M. Cossi, J. M. Millam, M. Klene, C. Adamo, R. Cammi, 
 J. W. Ochterski, R. L. Martin, K. Morokuma, O. Farkas, 
 J. B. Foresman, and D. J. Fox, Gaussian, Inc., Wallingford CT, 2016.
 
 ******************************************
 Gaussian 16:  EM64L-G16RevA.03 25-Dec-2016
                13-Dec-2021 
 ******************************************
 %chk=fullerene.chk
 ---------------------------------------
 # hf/sto-3g geom=connectivity scf=tight
 ---------------------------------------
 1/38=1,57=2,172=1/1;
 2/12=2,17=6,18=5,40=1/2;
 3/6=3,11=9,25=1,30=1/1,2,3;
 4//1;
 5/5=2,32=2,38=5/2;
 6/7=2,8=2,9=2,10=2,28=1/1;
 99/5=1,9=1/99;
 -------------------
 Title Card Required
 -------------------
 Symbolic Z-matrix:
 Charge =  0 Multiplicity = 1
 C
 C                    1    B1
 C                    2    B2       1    A1
 C                    3    B3       2    A2       1    D1       0
 C                    4    B4       3    A3       2    D2       0
 C                    1    B5       2    A4       3    D3       0
 C                    1    B6       6    A5       5    D4       0
 C                    7    B7       1    A6       6    D5       0
 C                    2    B8       1    A7       6    D6       0
 C                    9    B9       2    A8       1    D7       0
 C                    3    B10      2    A9       1    D8       0
 C                    4    B11      3    A10      2    D9       0
 C                    12   B12      4    A11      3    D10      0
 C                    13   B13      12   A12      4    D11      0
 C                    14   B14      13   A13      12   D12      0
 C                    15   B15      14   A14      13   D13      0
 C                    16   B16      15   A15      14   D14      0
 C                    17   B17      16   A16      15   D15      0
 C                    7    B18      1    A17      6    D16      0
 C                    8    B19      7    A18      1    D17      0
 C                    20   B20      8    A19      7    D18      0
 C                    21   B21      20   A20      8    D19      0
 C                    22   B22      21   A21      20   D20      0
 C                    18   B23      17   A22      16   D21      0
 C                    24   B24      18   A23      17   D22      0
 C                    16   B25      15   A24      14   D23      0
 C                    26   B26      16   A25      15   D24      0
 C                    27   B27      26   A26      16   D25      0
 C                    12   B28      4    A27      3    D26      0
 C                    28   B29      27   A28      26   D27      0
 C                    30   B30      28   A29      27   D28      0
 C                    31   B31      30   A30      28   D29      0
 C                    32   B32      31   A31      30   D30      0
 C                    33   B33      32   A32      31   D31      0
 C                    30   B34      28   A33      27   D32      0
 C                    35   B35      30   A34      28   D33      0
 C                    36   B36      35   A35      30   D34      0
 C                    37   B37      36   A36      35   D35      0
 C                    13   B38      12   A37      4    D36      0
 C                    39   B39      13   A38      12   D37      0
 C                    32   B40      31   A39      30   D38      0
 C                    41   B41      32   A40      31   D39      0
 C                    42   B42      41   A41      32   D40      0
 C                    43   B43      42   A42      41   D41      0
 C                    44   B44      43   A43      42   D42      0
 C                    45   B45      44   A44      43   D43      0
 C                    46   B46      45   A45      44   D44      0
 C                    35   B47      30   A46      28   D45      0
 C                    36   B48      35   A47      30   D46      0
 C                    49   B49      36   A48      35   D47      0
 C                    50   B50      49   A49      36   D48      0
 C                    23   B51      22   A50      21   D49      0
 C                    47   B52      46   A51      45   D50      0
 C                    53   B53      47   A52      46   D51      0
 C                    45   B54      44   A53      43   D52      0
 C                    55   B55      45   A54      44   D53      0
 C                    56   B56      55   A55      45   D54      0
 C                    29   B57      12   A56      4    D55      0
 C                    11   B58      3    A57      2    D56      0
 C                    34   B59      33   A58      32   D57      0
       Variables:
  B1                    1.46389                  
  B2                    1.38468                  
  B3                    1.4639                   
  B4                    1.38467                  
  B5                    1.38467                  
  B6                    1.4639                   
  B7                    1.46387                  
  B8                    1.46389                  
  B9                    1.38466                  
  B10                   1.46389                  
  B11                   1.46389                  
  B12                   1.38469                  
  B13                   1.46389                  
  B14                   1.38467                  
  B15                   1.4639                   
  B16                   1.46388                  
  B17                   1.38467                  
  B18                   1.38467                  
  B19                   1.38467                  
  B20                   1.46387                  
  B21                   1.38467                  
  B22                   1.4639                   
  B23                   1.46388                  
  B24                   1.38467                  
  B25                   1.38467                  
  B26                   1.46391                  
  B27                   1.38467                  
  B28                   1.46386                  
  B29                   3.70469                  
  B30                   1.38466                  
  B31                   1.46389                  
  B32                   1.38468                  
  B33                   1.46387                  
  B34                   2.36863                  
  B35                   1.4639                   
  B36                   1.46389                  
  B37                   1.38466                  
  B38                   1.46386                  
  B39                   1.38467                  
  B40                   1.46388                  
  B41                   1.38465                  
  B42                   1.46391                  
  B43                   1.38468                  
  B44                   1.46387                  
  B45                   1.46388                  
  B46                   1.38467                  
  B47                   1.38466                  
  B48                   1.38468                  
  B49                   1.46389                  
  B50                   1.38467                  
  B51                   1.38467                  
  B52                   1.46389                  
  B53                   1.38467                  
  B54                   1.38468                  
  B55                   1.46386                  
  B56                   1.38467                  
  B57                   1.38468                  
  B58                   1.38466                  
  B59                   1.38468                  
  A1                  119.99755                  
  A2                  120.00104                  
  A3                  120.00009                  
  A4                  120.00217                  
  A5                  119.99976                  
  A6                  108.00032                  
  A7                  108.00037                  
  A8                  120.00066                  
  A9                  119.99729                  
  A10                 108.00006                  
  A11                 119.99989                  
  A12                 120.00074                  
  A13                 119.99881                  
  A14                 119.99902                  
  A15                 108.00006                  
  A16                 120.00035                  
  A17                 120.00004                  
  A18                 119.99955                  
  A19                 120.00068                  
  A20                 119.9998                   
  A21                 120.0008                   
  A22                 120.00025                  
  A23                 119.99972                  
  A24                 120.00041                  
  A25                 120.00007                  
  A26                 120.00014                  
  A27                 108.00073                  
  A28                  97.63184                  
  A29                  97.63318                  
  A30                 120.00001                  
  A31                 119.99897                  
  A32                 120.00056                  
  A33                  82.36858                  
  A34                  72.00041                  
  A35                 108.00017                  
  A36                 120.00038                  
  A37                 119.99921                  
  A38                 120.00068                  
  A39                 108.00035                  
  A40                 120.00129                  
  A41                 119.99987                  
  A42                 119.99891                  
  A43                 119.99994                  
  A44                 108.00023                  
  A45                 120.00075                  
  A46                 143.99903                  
  A47                 120.00016                  
  A48                 119.99948                  
  A49                 120.00024                  
  A50                 119.99964                  
  A51                 119.9997                   
  A52                 119.99971                  
  A53                 119.99929                  
  A54                 119.99988                  
  A55                 120.0005                   
  A56                 119.99957                  
  A57                 120.00127                  
  A58                 119.99979                  
  D1                   -0.00086                  
  D2                    0.00201                  
  D3                   -0.001                    
  D4                 -138.19167                  
  D5                  142.62447                  
  D6                 -142.62316                  
  D7                  142.61903                  
  D8                 -138.18657                  
  D9                 -142.61899                  
  D10                 142.62374                  
  D11                  -0.00095                  
  D12                   0.                       
  D13                -138.18955                  
  D14                 142.62204                  
  D15                -142.6236                   
  D16                   0.00046                  
  D17                -142.62266                  
  D18                  -0.00039                  
  D19                   0.00033                  
  D20                 138.18994                  
  D21                   0.00127                  
  D22                  -0.00079                  
  D23                  -0.0005                   
  D24                   0.                       
  D25                   0.                       
  D26                   0.                       
  D27                 124.88052                  
  D28                -143.66764                  
  D29                 124.88167                  
  D30                   0.00276                  
  D31                  -0.00066                  
  D32                   0.00141                  
  D33                  24.06918                  
  D34                   0.00072                  
  D35                -142.62262                  
  D36                -138.19197                  
  D37                   0.0008                   
  D38                -142.61958                  
  D39                 142.62313                  
  D40                  -0.00196                  
  D41                   0.00155                  
  D42                -138.19168                  
  D43                 142.62224                  
  D44                -142.62082                  
  D45                 -92.49629                  
  D46                -142.62215                  
  D47                   0.00092                  
  D48                  -0.00113                  
  D49                  -0.00125                  
  D50                  -0.00146                  
  D51                   0.00084                  
  D52                   0.                       
  D53                   0.                       
  D54                   0.                       
  D55                 142.62402                  
  D56                  -0.00149                  
  D57                  -0.00112                  
 
 Stoichiometry    C60
 Framework group  C1[X(C60)]
 Deg. of freedom   174
 Full point group                 C1      NOp   1
 Largest Abelian subgroup         C1      NOp   1
 Largest concise Abelian subgroup C1      NOp   1
                         Standard orientation:                         
 ---------------------------------------------------------------------
 Center     Atomic      Atomic             Coordinates (Angstroms)
 Number     Number       Type             X           Y           Z
 ---------------------------------------------------------------------
      1          6           0       -0.714929    2.120895   -2.764375
      2          6           0       -1.704806    2.563811   -1.781044
      3          6           0       -1.297207    3.247897   -0.648246
      4          6           0        0.123547    3.528173   -0.433981
      5          6           0        1.059830    3.109235   -1.364127
      6          6           0        0.628925    2.386026   -2.561742
      7          6           0       -1.134676    0.813333   -3.271419
      8          6           0       -2.383933    0.448100   -2.601431
      9          6           0       -2.736314    1.529970   -1.680296
     10          6           0       -3.304405    1.236113   -0.452206
     11          6           0       -1.897806    2.937205    0.650105
     12          6           0        0.400995    3.390714    0.996790
     13          6           0        1.599732    2.841798    1.419970
     14          6           0        2.589590    2.398919    0.436597
     15          6           0        2.327137    2.528926   -0.916742
     16          6           0        2.679479    1.447084   -1.837872
     17          6           0        1.629932    1.358771   -2.854536
     18          6           0        1.232914    0.121973   -3.334139
     19          6           0       -0.187848   -0.158330   -3.548377
     20          6           0       -2.618760   -0.869036   -2.244630
     21          6           0       -1.617784   -1.896281   -2.537406
     22          6           0       -0.436116   -1.550810   -3.171146
     23          6           0        0.831198   -2.131126   -2.723761
     24          6           0        1.862707   -1.097278   -2.824499
     25          6           0        2.855458   -1.013753   -1.862839
     26          6           0        3.275205    0.293810   -1.355814
     27          6           0        3.552683    0.156379    0.074972
     28          6           0        3.219416    1.179661    0.946260
     29          6           0       -0.848244    3.025492    1.666797
     30          6           0        1.134649   -0.813343    3.271431
     31          6           0        0.187831    0.158313    3.548403
     32          6           0       -1.232912   -0.121974    3.334144
     33          6           0       -1.629929   -1.358788    2.854558
     34          6           0       -0.628943   -2.386036    2.561789
     35          6           0        1.704776   -2.563800    1.781042
     36          6           0        2.736289   -1.529953    1.680306
     37          6           0        2.383953   -0.448115    2.601423
     38          6           0        2.618785    0.869014    2.244604
     39          6           0        1.617757    1.896289    2.537366
     40          6           0        0.436096    1.550824    3.171129
     41          6           0       -1.862694    1.097267    2.824476
     42          6           0       -2.855430    1.013765    1.862830
     43          6           0       -3.275182   -0.293805    1.355768
     44          6           0       -2.679467   -1.447083    1.837856
     45          6           0       -2.327144   -2.528918    0.916762
     46          6           0       -1.059846   -3.109221    1.364143
     47          6           0       -0.123555   -3.528127    0.433989
     48          6           0        1.297196   -3.247844    0.648237
     49          6           0        3.304405   -1.236111    0.452202
     50          6           0        2.873492   -1.959292   -0.745420
     51          6           0        1.897811   -2.937186   -0.650132
     52          6           0        0.848259   -3.025493   -1.666822
     53          6           0       -0.401018   -3.390723   -0.996781
     54          6           0       -1.599743   -2.841834   -1.419957
     55          6           0       -2.589603   -2.398934   -0.436592
     56          6           0       -3.219383   -1.179702   -0.946225
     57          6           0       -3.552642   -0.156399   -0.074956
     58          6           0       -0.831171    2.131118    2.723743
     59          6           0       -2.873477    1.959311    0.745397
     60          6           0        0.714918   -2.120889    2.764423
 ---------------------------------------------------------------------
 Rotational constants (GHZ):           0.0832219           0.0832217           0.0832215
 Standard basis: STO-3G (5D, 7F)
 There are   300 symmetry adapted cartesian basis functions of A   symmetry.
 There are   300 symmetry adapted basis functions of A   symmetry.
   300 basis functions,   900 primitive gaussians,   300 cartesian basis functions
   180 alpha electrons      180 beta electrons
       nuclear repulsion energy      8310.3950606190 Hartrees.
 NAtoms=   60 NActive=   60 NUniq=   60 SFac= 1.00D+00 NAtFMM=   60 NAOKFM=T Big=T
 Integral buffers will be    131072 words long.
 Raffenetti 1 integral format.
 Two-electron integral symmetry is turned on.
 One-electron integrals computed using PRISM.
 NBasis=   300 RedAO= T EigKep=  1.65D-01  NBF=   300
 NBsUse=   300 1.00D-06 EigRej= -1.00D+00 NBFU=   300
 ExpMin= 2.22D-01 ExpMax= 7.16D+01 ExpMxC= 7.16D+01 IAcc=3 IRadAn=         5 AccDes= 0.00D+00
 Harris functional with IExCor=  205 and IRadAn=       5 diagonalized for initial guess.
 HarFok:  IExCor=  205 AccDes= 0.00D+00 IRadAn=         5 IDoV= 1 UseB2=F ITyADJ=14
 ICtDFT=  3500011 ScaDFX=  1.000000  1.000000  1.000000  1.000000
 FoFCou: FMM=F IPFlag=           0 FMFlag=      100000 FMFlg1=        2001
         NFxFlg=           0 DoJE=T BraDBF=F KetDBF=T FulRan=T
         wScrn=  0.000000 ICntrl=       500 IOpCl=  0 I1Cent=   200000004 NGrid=           0
         NMat0=    1 NMatS0=      1 NMatT0=    0 NMatD0=    1 NMtDS0=    0 NMtDT0=    0
 Petite list used in FoFCou.
 Requested convergence on RMS density matrix=1.00D-08 within 128 cycles.
 Requested convergence on MAX density matrix=1.00D-06.
 Requested convergence on             energy=1.00D-06.
 No special actions if energy rises.
 Integral accuracy reduced to 1.0D-05 until final iterations.
 Initial convergence to 1.0D-05 achieved.  Increase integral accuracy.
 SCF Done:  E(RHF) =  -2244.21877160     A.U. after   11 cycles
            NFock= 11  Conv=0.72D-08     -V/T= 2.0093

 **********************************************************************

            Population analysis using the SCF density.

 **********************************************************************

 Orbital symmetries:
       Occupied  (A) (A) (A) (A) (A) (A) (A) (A) (A) (A) (A) (A)
                 (A) (A) (A) (A) (A) (A) (A) (A) (A) (A) (A) (A)
                 (A) (A) (A) (A) (A) (A) (A) (A) (A) (A) (A) (A)
                 (A) (A) (A) (A) (A) (A) (A) (A) (A) (A) (A) (A)
                 (A) (A) (A) (A) (A) (A) (A) (A) (A) (A) (A) (A)
                 (A) (A) (A) (A) (A) (A) (A) (A) (A) (A) (A) (A)
                 (A) (A) (A) (A) (A) (A) (A) (A) (A) (A) (A) (A)
                 (A) (A) (A) (A) (A) (A) (A) (A) (A) (A) (A) (A)
                 (A) (A) (A) (A) (A) (A) (A) (A) (A) (A) (A) (A)
                 (A) (A) (A) (A) (A) (A) (A) (A) (A) (A) (A) (A)
                 (A) (A) (A) (A) (A) (A) (A) (A) (A) (A) (A) (A)
                 (A) (A) (A) (A) (A) (A) (A) (A) (A) (A) (A) (A)
                 (A) (A) (A) (A) (A) (A) (A) (A) (A) (A) (A) (A)
                 (A) (A) (A) (A) (A) (A) (A) (A) (A) (A) (A) (A)
                 (A) (A) (A) (A) (A) (A) (A) (A) (A) (A) (A) (A)
       Virtual   (A) (A) (A) (A) (A) (A) (A) (A) (A) (A) (A) (A)
                 (A) (A) (A) (A) (A) (A) (A) (A) (A) (A) (A) (A)
                 (A) (A) (A) (A) (A) (A) (A) (A) (A) (A) (A) (A)
                 (A) (A) (A) (A) (A) (A) (A) (A) (A) (A) (A) (A)
                 (A) (A) (A) (A) (A) (A) (A) (A) (A) (A) (A) (A)
                 (A) (A) (A) (A) (A) (A) (A) (A) (A) (A) (A) (A)
                 (A) (A) (A) (A) (A) (A) (A) (A) (A) (A) (A) (A)
                 (A) (A) (A) (A) (A) (A) (A) (A) (A) (A) (A) (A)
                 (A) (A) (A) (A) (A) (A) (A) (A) (A) (A) (A) (A)
                 (A) (A) (A) (A) (A) (A) (A) (A) (A) (A) (A) (A)
 The electronic state is 1-A.
 Alpha  occ. eigenvalues --  -11.05481 -11.05481 -11.05481 -11.05481 -11.05481
 Alpha  occ. eigenvalues --  -11.05479 -11.05479 -11.05479 -11.05479 -11.05479
 Alpha  occ. eigenvalues --  -11.05477 -11.05477 -11.05477 -11.05477 -11.05471
 Alpha  occ. eigenvalues --  -11.05471 -11.05471 -11.05468 -11.05468 -11.05468
 Alpha  occ. eigenvalues --  -11.05468 -11.05457 -11.05457 -11.05457 -11.05457
 Alpha  occ. eigenvalues --  -11.05457 -11.05446 -11.05446 -11.05446 -11.05438
 Alpha  occ. eigenvalues --  -11.05438 -11.05438 -11.05437 -11.05437 -11.05437
 Alpha  occ. eigenvalues --  -11.05437 -11.05437 -11.05436 -11.05436 -11.05436
 Alpha  occ. eigenvalues --  -11.05436 -11.05434 -11.05434 -11.05434 -11.05434
 Alpha  occ. eigenvalues --  -11.05434 -11.05434 -11.05434 -11.05431 -11.05428
 Alpha  occ. eigenvalues --  -11.05428 -11.05428 -11.05425 -11.05425 -11.05425
 Alpha  occ. eigenvalues --  -11.05425 -11.05425 -11.05424 -11.05424 -11.05424
 Alpha  occ. eigenvalues --   -1.20973  -1.18446  -1.18446  -1.18446  -1.13554
 Alpha  occ. eigenvalues --   -1.13554  -1.13554  -1.13554  -1.13554  -1.07941
 Alpha  occ. eigenvalues --   -1.07941  -1.07941  -1.05011  -1.05011  -1.05011
 Alpha  occ. eigenvalues --   -1.05010  -0.97866  -0.97866  -0.97866  -0.97865
 Alpha  occ. eigenvalues --   -0.97865  -0.96466  -0.96466  -0.96466  -0.96466
 Alpha  occ. eigenvalues --   -0.89398  -0.89398  -0.89398  -0.89398  -0.89398
 Alpha  occ. eigenvalues --   -0.85824  -0.85824  -0.85824  -0.80668  -0.80667
 Alpha  occ. eigenvalues --   -0.80667  -0.76540  -0.76540  -0.76540  -0.76539
 Alpha  occ. eigenvalues --   -0.76539  -0.75801  -0.75801  -0.75801  -0.70949
 Alpha  occ. eigenvalues --   -0.66586  -0.66585  -0.66585  -0.66585  -0.64105
 Alpha  occ. eigenvalues --   -0.64105  -0.64105  -0.64105  -0.64105  -0.61124
 Alpha  occ. eigenvalues --   -0.61123  -0.61123  -0.58183  -0.58183  -0.58183
 Alpha  occ. eigenvalues --   -0.57745  -0.54698  -0.54698  -0.54698  -0.54698
 Alpha  occ. eigenvalues --   -0.54542  -0.54542  -0.54542  -0.52461  -0.52461
 Alpha  occ. eigenvalues --   -0.52461  -0.52461  -0.52461  -0.51009  -0.51009
 Alpha  occ. eigenvalues --   -0.51009  -0.51009  -0.49054  -0.49054  -0.49054
 Alpha  occ. eigenvalues --   -0.48172  -0.48172  -0.48172  -0.48172  -0.48172
 Alpha  occ. eigenvalues --   -0.47019  -0.47019  -0.47019  -0.47019  -0.40891
 Alpha  occ. eigenvalues --   -0.40891  -0.40891  -0.40891  -0.40891  -0.39581
 Alpha  occ. eigenvalues --   -0.39581  -0.39581  -0.39581  -0.39581  -0.39289
 Alpha  occ. eigenvalues --   -0.39289  -0.39289  -0.38114  -0.38114  -0.38114
 Alpha  occ. eigenvalues --   -0.38114  -0.28035  -0.28035  -0.28035  -0.28034
 Alpha  occ. eigenvalues --   -0.26457  -0.26457  -0.26457  -0.26457  -0.26457
 Alpha  occ. eigenvalues --   -0.20415  -0.20415  -0.20415  -0.20415  -0.20415
 Alpha virt. eigenvalues --    0.10869   0.10869   0.10869   0.16722   0.16723
 Alpha virt. eigenvalues --    0.16723   0.23638   0.23638   0.23639   0.23639
 Alpha virt. eigenvalues --    0.23639   0.24455   0.24455   0.24455   0.32366
 Alpha virt. eigenvalues --    0.32366   0.32366   0.32366   0.32366   0.35993
 Alpha virt. eigenvalues --    0.35993   0.35994   0.35994   0.39369   0.39369
 Alpha virt. eigenvalues --    0.39369   0.39370   0.40805   0.40805   0.40805
 Alpha virt. eigenvalues --    0.50446   0.50446   0.50447   0.54656   0.54656
 Alpha virt. eigenvalues --    0.54656   0.58836   0.58836   0.58836   0.58837
 Alpha virt. eigenvalues --    0.58837   0.66243   0.66244   0.66244   0.66244
 Alpha virt. eigenvalues --    0.68171   0.68171   0.68171   0.68383   0.68383
 Alpha virt. eigenvalues --    0.68384   0.68384   0.68384   0.71816   0.71816
 Alpha virt. eigenvalues --    0.71817   0.71817   0.71817   0.74387   0.74387
 Alpha virt. eigenvalues --    0.74387   0.74387   0.77370   0.77370   0.77371
 Alpha virt. eigenvalues --    0.80053   0.80053   0.80053   0.80054   0.80054
 Alpha virt. eigenvalues --    0.80818   0.80818   0.80818   0.86982   0.86983
 Alpha virt. eigenvalues --    0.86983   0.87584   0.87584   0.87584   0.90192
 Alpha virt. eigenvalues --    0.90193   0.90193   0.90193   0.90380   0.90381
 Alpha virt. eigenvalues --    0.90381   0.90382   0.91571   0.91571   0.91571
 Alpha virt. eigenvalues --    0.91572   0.91572   0.91967   0.91967   0.91968
 Alpha virt. eigenvalues --    0.97698   0.97698   0.97699   0.97699   0.97699
 Alpha virt. eigenvalues --    1.01310   1.01310   1.01310   1.01311   1.01311
 Alpha virt. eigenvalues --    1.03808   1.03808   1.03808   1.03808   1.07219
 Alpha virt. eigenvalues --    1.07220   1.07220   1.11874   1.15216   1.15216
 Alpha virt. eigenvalues --    1.15216   1.15216   1.17038   1.17038   1.17038
          Condensed to atoms (all electrons):
 Mulliken charges:
               1
     1  C    0.000004
     2  C   -0.000001
     3  C   -0.000001
     4  C   -0.000001
     5  C    0.000002
     6  C   -0.000001
     7  C   -0.000003
     8  C    0.000001
     9  C    0.000002
    10  C    0.000001
    11  C    0.000001
    12  C    0.000000
    13  C   -0.000004
    14  C    0.000005
    15  C   -0.000002
    16  C    0.000001
    17  C   -0.000000
    18  C    0.000000
    19  C   -0.000001
    20  C   -0.000001
    21  C   -0.000004
    22  C    0.000001
    23  C   -0.000000
    24  C   -0.000001
    25  C   -0.000000
    26  C   -0.000000
    27  C    0.000003
    28  C   -0.000004
    29  C   -0.000001
    30  C    0.000002
    31  C   -0.000001
    32  C   -0.000001
    33  C   -0.000001
    34  C   -0.000002
    35  C    0.000001
    36  C    0.000001
    37  C   -0.000000
    38  C    0.000002
    39  C   -0.000000
    40  C    0.000000
    41  C   -0.000000
    42  C    0.000002
    43  C   -0.000001
    44  C    0.000000
    45  C   -0.000001
    46  C   -0.000000
    47  C    0.000003
    48  C   -0.000000
    49  C   -0.000002
    50  C   -0.000000
    51  C    0.000001
    52  C    0.000003
    53  C   -0.000003
    54  C    0.000005
    55  C   -0.000004
    56  C    0.000005
    57  C   -0.000002
    58  C   -0.000001
    59  C   -0.000001
    60  C    0.000000
 Sum of Mulliken charges =  -0.00000
 Mulliken charges with hydrogens summed into heavy atoms:
               1
     1  C    0.000004
     2  C   -0.000001
     3  C   -0.000001
     4  C   -0.000001
     5  C    0.000002
     6  C   -0.000001
     7  C   -0.000003
     8  C    0.000001
     9  C    0.000002
    10  C    0.000001
    11  C    0.000001
    12  C    0.000000
    13  C   -0.000004
    14  C    0.000005
    15  C   -0.000002
    16  C    0.000001
    17  C   -0.000000
    18  C    0.000000
    19  C   -0.000001
    20  C   -0.000001
    21  C   -0.000004
    22  C    0.000001
    23  C   -0.000000
    24  C   -0.000001
    25  C   -0.000000
    26  C   -0.000000
    27  C    0.000003
    28  C   -0.000004
    29  C   -0.000001
    30  C    0.000002
    31  C   -0.000001
    32  C   -0.000001
    33  C   -0.000001
    34  C   -0.000002
    35  C    0.000001
    36  C    0.000001
    37  C   -0.000000
    38  C    0.000002
    39  C   -0.000000
    40  C    0.000000
    41  C   -0.000000
    42  C    0.000002
    43  C   -0.000001
    44  C    0.000000
    45  C   -0.000001
    46  C   -0.000000
    47  C    0.000003
    48  C   -0.000000
    49  C   -0.000002
    50  C   -0.000000
    51  C    0.000001
    52  C    0.000003
    53  C   -0.000003
    54  C    0.000005
    55  C   -0.000004
    56  C    0.000005
    57  C   -0.000002
    58  C   -0.000001
    59  C   -0.000001
    60  C    0.000000
 Electronic spatial extent (au):  <R**2>=          16934.1508
 Charge=              0.0000 electrons
 Dipole moment (field-independent basis, Debye):
    X=              0.0001    Y=             -0.0000    Z=             -0.0000  Tot=              0.0001
 Quadrupole moment (field-independent basis, Debye-Ang):
   XX=           -300.2536   YY=           -300.2540   ZZ=           -300.2543
   XY=             -0.0002   XZ=              0.0002   YZ=             -0.0002
 Traceless Quadrupole moment (field-independent basis, Debye-Ang):
   XX=              0.0004   YY=             -0.0000   ZZ=             -0.0004
   XY=             -0.0002   XZ=              0.0002   YZ=             -0.0002
 Octapole moment (field-independent basis, Debye-Ang**2):
  XXX=             -0.0001  YYY=             -0.0010  ZZZ=              0.0003  XYY=              0.0003
  XXY=              0.0003  XXZ=             -0.0002  XZZ=              0.0004  YZZ=              0.0001
  YYZ=             -0.0006  XYZ=             -0.0002
 Hexadecapole moment (field-independent basis, Debye-Ang**3):
 XXXX=          -7806.8219 YYYY=          -7806.7931 ZZZZ=          -7806.7461 XXXY=             -0.0001
 XXXZ=              0.0012 YYYX=             -0.0012 YYYZ=             -0.0019 ZZZX=              0.0002
 ZZZY=             -0.0007 XXYY=          -2602.2693 XXZZ=          -2602.2622 YYZZ=          -2602.2573
 XXYZ=             -0.0012 YYXZ=              0.0009 ZZXY=             -0.0011
 N-N= 8.310395060619D+03 E-N=-2.185157337885D+04  KE= 2.223630461886D+03
 1\1\GINC-USER1\SP\RHF\STO-3G\C60\AMKINY01\13-Dec-2021\0\\# hf/sto-3g g
 eom=connectivity scf=tight\\Title Card Required\\0,1\C\C,1,1.463889\C,
 2,1.38468043,1,119.99755292\C,3,1.46390163,2,120.0010378,1,-0.00085869
 ,0\C,4,1.384668,3,120.00008514,2,0.00200543,0\C,1,1.38466518,2,120.002
 16978,3,-0.0010034,0\C,1,1.46389963,6,119.99976198,5,-138.19167217,0\C
 ,7,1.46387176,1,108.00032427,6,142.62446622,0\C,2,1.46389387,1,108.000
 36688,6,-142.62315693,0\C,9,1.38466058,2,120.0006558,1,142.61902997,0\
 C,3,1.4638869,2,119.99729348,1,-138.18656512,0\C,4,1.46389183,3,108.00
 006153,2,-142.61898728,0\C,12,1.38468789,4,119.99988597,3,142.62373738
 ,0\C,13,1.463893,12,120.00074171,4,-0.00094955,0\C,14,1.38466908,13,11
 9.99880523,12,0.,0\C,15,1.4639016,14,119.99901844,13,-138.18955458,0\C
 ,16,1.46388332,15,108.00006273,14,142.62204155,0\C,17,1.38467113,16,12
 0.00035005,15,-142.62359554,0\C,7,1.38467232,1,120.00004116,6,0.000464
 93,0\C,8,1.38466513,7,119.99955393,1,-142.62266058,0\C,20,1.4638661,8,
 120.00068321,7,-0.00039035,0\C,21,1.38467254,20,119.99980389,8,0.00032
 923,0\C,22,1.46389989,21,120.00079567,20,138.1899351,0\C,18,1.46387993
 ,17,120.00025017,16,0.00127188,0\C,24,1.38467384,18,119.99971622,17,-0
 .0007924,0\C,16,1.38466966,15,120.00041355,14,-0.00050301,0\C,26,1.463
 90957,16,120.00007061,15,0.,0\C,27,1.38467196,26,120.00013584,16,0.,0\
 C,12,1.4638631,4,108.00072895,3,0.,0\C,28,3.70469184,27,97.63183944,26
 ,124.88051671,0\C,30,1.38466384,28,97.63317855,27,-143.66763807,0\C,31
 ,1.46389107,30,120.000012,28,124.88166609,0\C,32,1.38467824,31,119.998
 97243,30,0.00275534,0\C,33,1.46387402,32,120.00056476,31,-0.00066451,0
 \C,30,2.36862863,28,82.36857797,27,0.00140999,0\C,35,1.46390083,30,72.
 00040943,28,24.06917616,0\C,36,1.46388864,35,108.00016971,30,0.0007191
 8,0\C,37,1.3846645,36,120.0003829,35,-142.62261755,0\C,13,1.46385986,1
 2,119.99921411,4,-138.19197485,0\C,39,1.38467458,13,120.00067979,12,0.
 00079885,0\C,32,1.46387703,31,108.00034645,30,-142.61958486,0\C,41,1.3
 8465197,32,120.00128859,31,142.62312623,0\C,42,1.46391343,41,119.99986
 636,32,-0.00196084,0\C,43,1.38467893,42,119.99890693,41,0.00155013,0\C
 ,44,1.46386858,43,119.99994025,42,-138.19167863,0\C,45,1.46388064,44,1
 08.00022914,43,142.62223648,0\C,46,1.38467,45,120.00074933,44,-142.620
 81523,0\C,35,1.38466105,30,143.99903235,28,-92.49628754,0\C,36,1.38467
 993,35,120.00016075,30,-142.62214884,0\C,49,1.46389045,36,119.99947864
 ,35,0.0009185,0\C,50,1.3846696,49,120.0002373,36,-0.00112727,0\C,23,1.
 38466728,22,119.99964265,21,-0.00124763,0\C,47,1.46388756,46,119.99969
 803,45,-0.00146464,0\C,53,1.38466602,47,119.99971281,46,0.00084089,0\C
 ,45,1.38468285,44,119.99929394,43,0.,0\C,55,1.46385664,45,119.99988028
 ,44,0.,0\C,56,1.38467344,55,120.00050044,45,0.,0\C,29,1.38467766,12,11
 9.99957275,4,142.62402126,0\C,11,1.38466222,3,120.00127451,2,-0.001489
 82,0\C,34,1.3846758,33,119.99979204,32,-0.00112191,0\\Version=EM64L-G1
 6RevA.03\State=1-A\HF=-2244.2187716\RMSD=7.194e-09\Dipole=-0.0000029,-
 0.0000089,-0.0000327\Quadrupole=0.0000155,0.00011,-0.0001254,-0.000131
 3,-0.0002771,0.0001518\PG=C01 [X(C60)]\\@


 THE MEEK SHALL INHERIT THE EARTH.
 (THE REST OF US WILL ESCAPE TO THE STARS)
 Job cpu time:       0 days  0 hours  4 minutes 52.6 seconds.
 Elapsed time:       0 days  0 hours  4 minutes 53.3 seconds.
 File lengths (MBytes):  RWF=    112 Int=      0 D2E=      0 Chk=     12 Scr=      8
 Normal termination of Gaussian 16 at Mon Dec 13 16:47:20 2021.
