************************************************************
This is node156 of the Cardinal research cluster.
Date: Mon Dec 13 11:31:53 EST 2021
************************************************************
 Set GAUSS_MDEF to "12GB".
 Set GAUSS_PDEF to "8".
 Entering Gaussian System, Link 0=g16
 Initial command:
 /usr/local/g16reva03/legacy_cpu/g16/l1.exe "/scratch/global/amkiny01/Gau-6223.inp" -scrdir="/scratch/global/amkiny01/"
 Default is to use a total of   8 processors:
                                8 via shared-memory
                                1 via Linda
 Entering Link 1 = /usr/local/g16reva03/legacy_cpu/g16/l1.exe PID=      6224.
  
 Copyright (c) 1988,1990,1992,1993,1995,1998,2003,2009,2016,
            Gaussian, Inc.  All Rights Reserved.
  
 This is part of the Gaussian(R) 16 program.  It is based on
 the Gaussian(R) 09 system (copyright 2009, Gaussian, Inc.),
 the Gaussian(R) 03 system (copyright 2003, Gaussian, Inc.),
 the Gaussian(R) 98 system (copyright 1998, Gaussian, Inc.),
 the Gaussian(R) 94 system (copyright 1995, Gaussian, Inc.),
 the Gaussian 92(TM) system (copyright 1992, Gaussian, Inc.),
 the Gaussian 90(TM) system (copyright 1990, Gaussian, Inc.),
 the Gaussian 88(TM) system (copyright 1988, Gaussian, Inc.),
 the Gaussian 86(TM) system (copyright 1986, Carnegie Mellon
 University), and the Gaussian 82(TM) system (copyright 1983,
 Carnegie Mellon University). Gaussian is a federally registered
 trademark of Gaussian, Inc.
  
 This software contains proprietary and confidential information,
 including trade secrets, belonging to Gaussian, Inc.
  
 This software is provided under written license and may be
 used, copied, transmitted, or stored only in accord with that
 written license.
  
 The following legend is applicable only to US Government
 contracts under FAR:
  
                    RESTRICTED RIGHTS LEGEND
  
 Use, reproduction and disclosure by the US Government is
 subject to restrictions as set forth in subparagraphs (a)
 and (c) of the Commercial Computer Software - Restricted
 Rights clause in FAR 52.227-19.
  
 Gaussian, Inc.
 340 Quinnipiac St., Bldg. 40, Wallingford CT 06492
  
  
 ---------------------------------------------------------------
 Warning -- This program may not be used in any manner that
 competes with the business of Gaussian, Inc. or will provide
 assistance to any competitor of Gaussian, Inc.  The licensee
 of this program is prohibited from giving any competitor of
 Gaussian, Inc. access to this program.  By using this program,
 the user acknowledges that Gaussian, Inc. is engaged in the
 business of creating and licensing software in the field of
 computational chemistry and represents and warrants to the
 licensee that it is not a competitor of Gaussian, Inc. and that
 it will not use this program in any manner prohibited above.
 ---------------------------------------------------------------
  

 Cite this work as:
 Gaussian 16, Revision A.03,
 M. J. Frisch, G. W. Trucks, H. B. Schlegel, G. E. Scuseria, 
 M. A. Robb, J. R. Cheeseman, G. Scalmani, V. Barone, 
 G. A. Petersson, H. Nakatsuji, X. Li, M. Caricato, A. V. Marenich, 
 J. Bloino, B. G. Janesko, R. Gomperts, B. Mennucci, H. P. Hratchian, 
 J. V. Ortiz, A. F. Izmaylov, J. L. Sonnenberg, D. Williams-Young, 
 F. Ding, F. Lipparini, F. Egidi, J. Goings, B. Peng, A. Petrone, 
 T. Henderson, D. Ranasinghe, V. G. Zakrzewski, J. Gao, N. Rega, 
 G. Zheng, W. Liang, M. Hada, M. Ehara, K. Toyota, R. Fukuda, 
 J. Hasegawa, M. Ishida, T. Nakajima, Y. Honda, O. Kitao, H. Nakai, 
 T. Vreven, K. Throssell, J. A. Montgomery, Jr., J. E. Peralta, 
 F. Ogliaro, M. J. Bearpark, J. J. Heyd, E. N. Brothers, K. N. Kudin, 
 V. N. Staroverov, T. A. Keith, R. Kobayashi, J. Normand, 
 K. Raghavachari, A. P. Rendell, J. C. Burant, S. S. Iyengar, 
 J. Tomasi, M. Cossi, J. M. Millam, M. Klene, C. Adamo, R. Cammi, 
 J. W. Ochterski, R. L. Martin, K. Morokuma, O. Farkas, 
 J. B. Foresman, and D. J. Fox, Gaussian, Inc., Wallingford CT, 2016.
 
 ******************************************
 Gaussian 16:  EM64L-G16RevA.03 25-Dec-2016
                13-Dec-2021 
 ******************************************
 %chk=methane_NMR.chk
 ---------------------------------------------------
 #P rhf/6-31g(d) geom=connectivity pop=full nmr test
 ---------------------------------------------------
 1/38=1,57=2,172=1/1;
 2/12=2,17=6,18=5,40=1/2;
 3/5=1,6=6,7=1,11=1,25=1,30=1,116=1/1,2,3,8;
 4//1;
 5/5=2,38=5/2;
 8/6=1,10=90,11=11/1;
 10/13=100,45=16/2;
 6/7=3,28=1/1;
 99/9=1/99;
 Leave Link    1 at Mon Dec 13 11:31:54 2021, MaxMem=           0 cpu:               2.1 elap:               0.3
 (Enter /usr/local/g16reva03/legacy_cpu/g16/l101.exe)
 -----------
 Methane NMR
 -----------
 Symbolic Z-matrix:
 Charge =  0 Multiplicity = 1
 C                    -0.85856  -0.1757   -0.07838 
 H                    -0.5019   -1.18451  -0.07838 
 H                    -0.50188   0.3287    0.79527 
 H                    -0.50188   0.3287   -0.95204 
 H                    -1.92856  -0.17569  -0.07838 
 
 ITRead=  0  0  0  0  0
 MicOpt= -1 -1 -1 -1 -1
 NAtoms=      5 NQM=        5 NQMF=       0 NMMI=      0 NMMIF=      0
                NMic=       0 NMicF=      0.
                    Isotopes and Nuclear Properties:
 (Nuclear quadrupole moments (NQMom) in fm**2, nuclear magnetic moments (NMagM)
  in nuclear magnetons)

  Atom         1           2           3           4           5
 IAtWgt=          12           1           1           1           1
 AtmWgt=  12.0000000   1.0078250   1.0078250   1.0078250   1.0078250
 NucSpn=           0           1           1           1           1
 AtZEff=  -0.0000000  -0.0000000  -0.0000000  -0.0000000  -0.0000000
 NQMom=    0.0000000   0.0000000   0.0000000   0.0000000   0.0000000
 NMagM=    0.0000000   2.7928460   2.7928460   2.7928460   2.7928460
 AtZNuc=   6.0000000   1.0000000   1.0000000   1.0000000   1.0000000
 Leave Link  101 at Mon Dec 13 11:31:54 2021, MaxMem=  1610612736 cpu:               1.4 elap:               0.2
 (Enter /usr/local/g16reva03/legacy_cpu/g16/l202.exe)
                          Input orientation:                          
 ---------------------------------------------------------------------
 Center     Atomic      Atomic             Coordinates (Angstroms)
 Number     Number       Type             X           Y           Z
 ---------------------------------------------------------------------
      1          6           0       -0.858555   -0.175699   -0.078384
      2          1           0       -0.501901   -1.184509   -0.078384
      3          1           0       -0.501882    0.328699    0.795267
      4          1           0       -0.501882    0.328699   -0.952036
      5          1           0       -1.928555   -0.175686   -0.078384
 ---------------------------------------------------------------------
                    Distance matrix (angstroms):
                    1          2          3          4          5
     1  C    0.000000
     2  H    1.070000   0.000000
     3  H    1.070000   1.747302   0.000000
     4  H    1.070000   1.747302   1.747303   0.000000
     5  H    1.070000   1.747303   1.747303   1.747303   0.000000
 Stoichiometry    CH4
 Framework group  T[O(C),4C3(H)]
 Deg. of freedom     1
 Full point group                 T       NOp  12
 Largest Abelian subgroup         D2      NOp   4
 Largest concise Abelian subgroup D2      NOp   4
                         Standard orientation:                         
 ---------------------------------------------------------------------
 Center     Atomic      Atomic             Coordinates (Angstroms)
 Number     Number       Type             X           Y           Z
 ---------------------------------------------------------------------
      1          6           0        0.000000   -0.000000    0.000000
      2          1           0        0.617765    0.617765    0.617765
      3          1           0       -0.617765   -0.617765    0.617765
      4          1           0       -0.617765    0.617765   -0.617765
      5          1           0        0.617765   -0.617765   -0.617765
 ---------------------------------------------------------------------
 Rotational constants (GHZ):         164.2463798         164.2463798         164.2463798
 Leave Link  202 at Mon Dec 13 11:31:54 2021, MaxMem=  1610612736 cpu:               2.1 elap:               0.3
 (Enter /usr/local/g16reva03/legacy_cpu/g16/l301.exe)
 Standard basis: 6-31G(d) (6D, 7F)
 Ernie: Thresh=  0.10000D-02 Tol=  0.10000D-05 Strict=F.
 There are     8 symmetry adapted cartesian basis functions of A   symmetry.
 There are     5 symmetry adapted cartesian basis functions of B1  symmetry.
 There are     5 symmetry adapted cartesian basis functions of B2  symmetry.
 There are     5 symmetry adapted cartesian basis functions of B3  symmetry.
 There are     8 symmetry adapted basis functions of A   symmetry.
 There are     5 symmetry adapted basis functions of B1  symmetry.
 There are     5 symmetry adapted basis functions of B2  symmetry.
 There are     5 symmetry adapted basis functions of B3  symmetry.
    23 basis functions,    44 primitive gaussians,    23 cartesian basis functions
     5 alpha electrons        5 beta electrons
       nuclear repulsion energy        13.6865186119 Hartrees.
 IExCor=    0 DFT=F Ex=HF Corr=None ExCW=0 ScaHFX=  1.000000
 ScaDFX=  1.000000  1.000000  1.000000  1.000000 ScalE2=  1.000000  1.000000
 IRadAn=      5 IRanWt=     -1 IRanGd=            0 ICorTp=0 IEmpDi=  4
 NAtoms=    5 NActive=    5 NUniq=    2 SFac= 4.00D+00 NAtFMM=   60 NAOKFM=F Big=F
 Integral buffers will be    131072 words long.
 Raffenetti 1 integral format.
 Two-electron integral symmetry is turned on.
 Leave Link  301 at Mon Dec 13 11:31:54 2021, MaxMem=  1610612736 cpu:               0.9 elap:               0.1
 (Enter /usr/local/g16reva03/legacy_cpu/g16/l302.exe)
 NPDir=0 NMtPBC=     1 NCelOv=     1 NCel=       1 NClECP=     1 NCelD=      1
         NCelK=      1 NCelE2=     1 NClLst=     1 CellRange=     0.0.
 One-electron integrals computed using PRISM.
 One-electron integral symmetry used in STVInt
 NBasis=    23 RedAO= T EigKep=  1.66D-02  NBF=     8     5     5     5
 NBsUse=    23 1.00D-06 EigRej= -1.00D+00 NBFU=     8     5     5     5
 Leave Link  302 at Mon Dec 13 11:31:55 2021, MaxMem=  1610612736 cpu:               1.6 elap:               0.2
 (Enter /usr/local/g16reva03/legacy_cpu/g16/l303.exe)
 DipDrv:  MaxL=1.
 Leave Link  303 at Mon Dec 13 11:31:55 2021, MaxMem=  1610612736 cpu:               0.4 elap:               0.1
 (Enter /usr/local/g16reva03/legacy_cpu/g16/l308.exe)
 Leave Link  308 at Mon Dec 13 11:31:55 2021, MaxMem=  1610612736 cpu:               0.3 elap:               0.1
 (Enter /usr/local/g16reva03/legacy_cpu/g16/l401.exe)
 ExpMin= 1.61D-01 ExpMax= 3.05D+03 ExpMxC= 4.57D+02 IAcc=3 IRadAn=         5 AccDes= 0.00D+00
 Harris functional with IExCor=  205 and IRadAn=       5 diagonalized for initial guess.
 HarFok:  IExCor=  205 AccDes= 0.00D+00 IRadAn=         5 IDoV= 1 UseB2=F ITyADJ=14
 ICtDFT=  3500011 ScaDFX=  1.000000  1.000000  1.000000  1.000000
 FoFCou: FMM=F IPFlag=           0 FMFlag=      100000 FMFlg1=           0
         NFxFlg=           0 DoJE=T BraDBF=F KetDBF=T FulRan=T
         wScrn=  0.000000 ICntrl=       500 IOpCl=  0 I1Cent=   200000004 NGrid=           0
         NMat0=    1 NMatS0=      1 NMatT0=    0 NMatD0=    1 NMtDS0=    0 NMtDT0=    0
 Petite list used in FoFCou.
 Harris En= -40.3796215113941    
 JPrj=0 DoOrth=F DoCkMO=F.
 Initial guess orbital symmetries:
       Occupied  (A) (A) (T) (T) (T)
       Virtual   (A) (T) (T) (T) (T) (T) (T) (T) (T) (T) (A) (A)
                 (E) (E) (T) (T) (T) (A)
 The electronic state of the initial guess is 1-A.
 Leave Link  401 at Mon Dec 13 11:31:56 2021, MaxMem=  1610612736 cpu:               4.4 elap:               0.7
 (Enter /usr/local/g16reva03/legacy_cpu/g16/l502.exe)
 Keep R1 ints in memory in symmetry-blocked form, NReq=1691548.
 FoFCou: FMM=F IPFlag=           0 FMFlag=           0 FMFlg1=           0
         NFxFlg=           0 DoJE=F BraDBF=F KetDBF=F FulRan=T
         wScrn=  0.000000 ICntrl=       600 IOpCl=  0 I1Cent=           0 NGrid=           0
         NMat0=    1 NMatS0=    276 NMatT0=    0 NMatD0=    1 NMtDS0=    0 NMtDT0=    0
 Petite list used in FoFCou.
 Closed shell SCF:
 Using DIIS extrapolation, IDIIS=  1040.
 NGot=  1610612736 LenX=  1610599791 LenY=  1610598821
 Requested convergence on RMS density matrix=1.00D-08 within 128 cycles.
 Requested convergence on MAX density matrix=1.00D-06.
 Requested convergence on             energy=1.00D-06.
 No special actions if energy rises.

 Cycle   1  Pass 1  IDiag  1:
 E= -40.0611834041648    
 DIIS: error= 8.47D-02 at cycle   1 NSaved=   1.
 NSaved= 1 IEnMin= 1 EnMin= -40.0611834041648     IErMin= 1 ErrMin= 8.47D-02
 ErrMax= 8.47D-02  0.00D+00 EMaxC= 1.00D-01 BMatC= 1.45D-01 BMatP= 1.45D-01
 IDIUse=3 WtCom= 1.53D-01 WtEn= 8.47D-01
 Coeff-Com:  0.100D+01
 Coeff-En:   0.100D+01
 Coeff:      0.100D+01
 Gap=     0.727 Goal=   None    Shift=    0.000
 GapD=    0.727 DampG=2.000 DampE=0.500 DampFc=1.0000 IDamp=-1.
 RMSDP=1.60D-02 MaxDP=1.37D-01              OVMax= 1.47D-01

 Cycle   2  Pass 1  IDiag  1:
 E= -40.1751000923862     Delta-E=       -0.113916688221 Rises=F Damp=F
 DIIS: error= 3.31D-02 at cycle   2 NSaved=   2.
 NSaved= 2 IEnMin= 2 EnMin= -40.1751000923862     IErMin= 2 ErrMin= 3.31D-02
 ErrMax= 3.31D-02  0.00D+00 EMaxC= 1.00D-01 BMatC= 2.20D-02 BMatP= 1.45D-01
 IDIUse=3 WtCom= 6.69D-01 WtEn= 3.31D-01
 Coeff-Com:  0.251D+00 0.749D+00
 Coeff-En:   0.000D+00 0.100D+01
 Coeff:      0.168D+00 0.832D+00
 Gap=     0.821 Goal=   None    Shift=    0.000
 RMSDP=4.95D-03 MaxDP=3.95D-02 DE=-1.14D-01 OVMax= 4.38D-02

 Cycle   3  Pass 1  IDiag  1:
 E= -40.1940837128768     Delta-E=       -0.018983620491 Rises=F Damp=F
 DIIS: error= 5.37D-03 at cycle   3 NSaved=   3.
 NSaved= 3 IEnMin= 3 EnMin= -40.1940837128768     IErMin= 3 ErrMin= 5.37D-03
 ErrMax= 5.37D-03  0.00D+00 EMaxC= 1.00D-01 BMatC= 4.88D-04 BMatP= 2.20D-02
 IDIUse=3 WtCom= 9.46D-01 WtEn= 5.37D-02
 Coeff-Com: -0.258D-01 0.812D-01 0.945D+00
 Coeff-En:   0.000D+00 0.000D+00 0.100D+01
 Coeff:     -0.244D-01 0.769D-01 0.948D+00
 Gap=     0.809 Goal=   None    Shift=    0.000
 RMSDP=8.20D-04 MaxDP=6.30D-03 DE=-1.90D-02 OVMax= 7.59D-03

 Cycle   4  Pass 1  IDiag  1:
 E= -40.1946334035407     Delta-E=       -0.000549690664 Rises=F Damp=F
 DIIS: error= 3.72D-04 at cycle   4 NSaved=   4.
 NSaved= 4 IEnMin= 4 EnMin= -40.1946334035407     IErMin= 4 ErrMin= 3.72D-04
 ErrMax= 3.72D-04  0.00D+00 EMaxC= 1.00D-01 BMatC= 3.60D-06 BMatP= 4.88D-04
 IDIUse=3 WtCom= 9.96D-01 WtEn= 3.72D-03
 Coeff-Com:  0.802D-02-0.395D-01-0.322D+00 0.135D+01
 Coeff-En:   0.000D+00 0.000D+00 0.000D+00 0.100D+01
 Coeff:      0.799D-02-0.394D-01-0.321D+00 0.135D+01
 Gap=     0.809 Goal=   None    Shift=    0.000
 RMSDP=1.68D-04 MaxDP=8.13D-04 DE=-5.50D-04 OVMax= 9.28D-04

 Cycle   5  Pass 1  IDiag  1:
 E= -40.1946396765137     Delta-E=       -0.000006272973 Rises=F Damp=F
 DIIS: error= 2.87D-05 at cycle   5 NSaved=   5.
 NSaved= 5 IEnMin= 5 EnMin= -40.1946396765137     IErMin= 5 ErrMin= 2.87D-05
 ErrMax= 2.87D-05  0.00D+00 EMaxC= 1.00D-01 BMatC= 1.80D-08 BMatP= 3.60D-06
 IDIUse=1 WtCom= 1.00D+00 WtEn= 0.00D+00
 Coeff-Com: -0.141D-02 0.737D-02 0.597D-01-0.302D+00 0.124D+01
 Coeff:     -0.141D-02 0.737D-02 0.597D-01-0.302D+00 0.124D+01
 Gap=     0.809 Goal=   None    Shift=    0.000
 RMSDP=2.10D-05 MaxDP=8.86D-05 DE=-6.27D-06 OVMax= 9.25D-05

 Cycle   6  Pass 1  IDiag  1:
 E= -40.1946397193185     Delta-E=       -0.000000042805 Rises=F Damp=F
 DIIS: error= 1.53D-06 at cycle   6 NSaved=   6.
 NSaved= 6 IEnMin= 6 EnMin= -40.1946397193185     IErMin= 6 ErrMin= 1.53D-06
 ErrMax= 1.53D-06  0.00D+00 EMaxC= 1.00D-01 BMatC= 4.12D-11 BMatP= 1.80D-08
 IDIUse=1 WtCom= 1.00D+00 WtEn= 0.00D+00
 Coeff-Com:  0.112D-03-0.566D-03-0.465D-02 0.253D-01-0.141D+00 0.112D+01
 Coeff:      0.112D-03-0.566D-03-0.465D-02 0.253D-01-0.141D+00 0.112D+01
 Gap=     0.809 Goal=   None    Shift=    0.000
 RMSDP=1.01D-06 MaxDP=5.59D-06 DE=-4.28D-08 OVMax= 3.69D-06

 Cycle   7  Pass 1  IDiag  1:
 E= -40.1946397193937     Delta-E=       -0.000000000075 Rises=F Damp=F
 DIIS: error= 1.10D-07 at cycle   7 NSaved=   7.
 NSaved= 7 IEnMin= 7 EnMin= -40.1946397193937     IErMin= 7 ErrMin= 1.10D-07
 ErrMax= 1.10D-07  0.00D+00 EMaxC= 1.00D-01 BMatC= 1.98D-13 BMatP= 4.12D-11
 IDIUse=1 WtCom= 1.00D+00 WtEn= 0.00D+00
 Coeff-Com: -0.555D-05 0.262D-04 0.232D-03-0.138D-02 0.889D-02-0.105D+00
 Coeff-Com:  0.110D+01
 Coeff:     -0.555D-05 0.262D-04 0.232D-03-0.138D-02 0.889D-02-0.105D+00
 Coeff:      0.110D+01
 Gap=     0.809 Goal=   None    Shift=    0.000
 RMSDP=5.32D-08 MaxDP=6.01D-07 DE=-7.52D-11 OVMax= 1.41D-07

 Cycle   8  Pass 1  IDiag  1:
 E= -40.1946397193940     Delta-E=       -0.000000000000 Rises=F Damp=F
 DIIS: error= 9.10D-09 at cycle   8 NSaved=   8.
 NSaved= 8 IEnMin= 8 EnMin= -40.1946397193940     IErMin= 8 ErrMin= 9.10D-09
 ErrMax= 9.10D-09  0.00D+00 EMaxC= 1.00D-01 BMatC= 7.62D-16 BMatP= 1.98D-13
 IDIUse=1 WtCom= 1.00D+00 WtEn= 0.00D+00
 Coeff-Com:  0.446D-06-0.189D-05-0.176D-04 0.110D-03-0.653D-03 0.921D-02
 Coeff-Com: -0.138D+00 0.113D+01
 Coeff:      0.446D-06-0.189D-05-0.176D-04 0.110D-03-0.653D-03 0.921D-02
 Coeff:     -0.138D+00 0.113D+01
 Gap=     0.809 Goal=   None    Shift=    0.000
 RMSDP=2.90D-09 MaxDP=3.80D-08 DE=-2.20D-13 OVMax= 2.24D-08

 SCF Done:  E(RHF) =  -40.1946397194     A.U. after    8 cycles
            NFock=  8  Conv=0.29D-08     -V/T= 1.9983
 KE= 4.026198687765D+01 PE=-1.204289107028D+02 EE= 2.628576549379D+01
 Leave Link  502 at Mon Dec 13 11:31:57 2021, MaxMem=  1610612736 cpu:               5.9 elap:               0.9
 (Enter /usr/local/g16reva03/legacy_cpu/g16/l801.exe)
 Range of M.O.s used for correlation:     1    23
 NBasis=    23 NAE=     5 NBE=     5 NFC=     0 NFV=     0
 NROrb=     23 NOA=     5 NOB=     5 NVA=    18 NVB=    18
 Leave Link  801 at Mon Dec 13 11:31:57 2021, MaxMem=  1610612736 cpu:               0.5 elap:               0.1
 (Enter /usr/local/g16reva03/legacy_cpu/g16/l1002.exe)
 Minotr:  Closed shell wavefunction.
          Direct CPHF calculation.
          Differentiating once with respect to magnetic field using GIAOs.
          Electric field/nuclear overlap derivatives assumed to be zero.
          Using symmetry in CPHF.
          Requested convergence is 1.0D-08 RMS, and 1.0D-07 maximum.
          Secondary convergence is 1.0D-12 RMS, and 1.0D-12 maximum.
          NewPWx=T KeepS1=F KeepF1=F KeepIn=T MapXYZ=F SortEE=F KeepMc=T.
 Keep R3 ints in memory in symmetry-blocked form, NReq=1692102.
 FoFCou: FMM=F IPFlag=           0 FMFlag=           0 FMFlg1=           0
         NFxFlg=           0 DoJE=F BraDBF=F KetDBF=F FulRan=T
         wScrn=  0.000000 ICntrl=       600 IOpCl=  0 I1Cent=           0 NGrid=           0
         NMat0=    1 NMatS0=    276 NMatT0=    0 NMatD0=    1 NMtDS0=    0 NMtDT0=    0
 Petite list used in FoFCou.
          MDV=    1610612736 using IRadAn=       1.
          Solving linear equations simultaneously, MaxMat=       0.
 FoFJK:  IHMeth= 1 ICntrl=    6127 DoSepK=F KAlg= 0 I1Cent=           0 FoldK=F
 IRaf=         1 NMat=       1 IRICut=       1 DoRegI=T DoRafI=F ISym2E= 0 IDoP0=0 IntGTp=1.
          There are     3 degrees of freedom in the 1st order CPHF.  IDoFFX=0 NUNeed=     3.
      3 vectors produced by pass  0 Test12= 3.00D-15 3.33D-08 XBig12= 5.21D-02 1.41D-01.
 AX will form     3 AO Fock derivatives at one time.
      3 vectors produced by pass  1 Test12= 3.00D-15 3.33D-08 XBig12= 9.99D-05 7.15D-03.
      3 vectors produced by pass  2 Test12= 3.00D-15 3.33D-08 XBig12= 1.38D-07 2.14D-04.
      3 vectors produced by pass  3 Test12= 3.00D-15 3.33D-08 XBig12= 4.47D-10 1.19D-05.
      3 vectors produced by pass  4 Test12= 3.00D-15 3.33D-08 XBig12= 7.66D-14 1.60D-07.
 InvSVY:  IOpt=1 It=  1 EMax= 2.78D-17
 Solved reduced A of dimension    15 with     3 vectors.
 Calculating GIAO nuclear magnetic shielding tensors.
 SCF GIAO Magnetic shielding tensor (ppm):
      1  C    Isotropic =   203.7667   Anisotropy =     0.0000
   XX=   203.7667   YX=     0.0000   ZX=     0.0000
   XY=     0.0000   YY=   203.7667   ZY=    -0.0000
   XZ=    -0.0000   YZ=    -0.0000   ZZ=   203.7667
   Eigenvalues:   203.7667   203.7667   203.7667
      2  H    Isotropic =    32.8507   Anisotropy =     9.4972
   XX=    32.8507   YX=     3.1657   ZX=     3.1657
   XY=     3.1657   YY=    32.8507   ZY=     3.1657
   XZ=     3.1657   YZ=     3.1657   ZZ=    32.8507
   Eigenvalues:    29.6850    29.6850    39.1822
      3  H    Isotropic =    32.8507   Anisotropy =     9.4972
   XX=    32.8507   YX=     3.1657   ZX=    -3.1657
   XY=     3.1657   YY=    32.8507   ZY=    -3.1657
   XZ=    -3.1657   YZ=    -3.1657   ZZ=    32.8507
   Eigenvalues:    29.6850    29.6850    39.1822
      4  H    Isotropic =    32.8507   Anisotropy =     9.4972
   XX=    32.8507   YX=    -3.1657   ZX=     3.1657
   XY=    -3.1657   YY=    32.8507   ZY=    -3.1657
   XZ=     3.1657   YZ=    -3.1657   ZZ=    32.8507
   Eigenvalues:    29.6850    29.6850    39.1822
      5  H    Isotropic =    32.8507   Anisotropy =     9.4972
   XX=    32.8507   YX=    -3.1657   ZX=    -3.1657
   XY=    -3.1657   YY=    32.8507   ZY=     3.1657
   XZ=    -3.1657   YZ=     3.1657   ZZ=    32.8507
   Eigenvalues:    29.6850    29.6850    39.1822
 End of Minotr F.D. properties file   721 does not exist.
 End of Minotr F.D. properties file   722 does not exist.
 End of Minotr F.D. properties file   788 does not exist.
 Leave Link 1002 at Mon Dec 13 11:31:58 2021, MaxMem=  1610612736 cpu:               3.9 elap:               0.9
 (Enter /usr/local/g16reva03/legacy_cpu/g16/l601.exe)
 Copying SCF densities to generalized density rwf, IOpCl= 0 IROHF=0.

 **********************************************************************

            Population analysis using the SCF density.

 **********************************************************************

 Orbital symmetries:
       Occupied  (A) (A) (T) (T) (T)
       Virtual   (A) (T) (T) (T) (T) (T) (T) (T) (T) (T) (A) (A)
                 (E) (E) (T) (T) (T) (A)
 The electronic state is 1-A.
 Alpha  occ. eigenvalues --  -11.19828  -0.95026  -0.54972  -0.54972  -0.54972
 Alpha virt. eigenvalues --    0.25968   0.33158   0.33158   0.33158   0.72334
 Alpha virt. eigenvalues --    0.72334   0.72334   1.19701   1.19701   1.19701
 Alpha virt. eigenvalues --    1.27372   1.32075   1.93840   1.93840   2.61196
 Alpha virt. eigenvalues --    2.61196   2.61196   4.62291
     Molecular Orbital Coefficients:
                           1         2         3         4         5
                        (A)--O    (A)--O    (T)--O    (T)--O    (T)--O
     Eigenvalues --   -11.19828  -0.95026  -0.54972  -0.54972  -0.54972
   1 1   C  1S          0.99558  -0.19475   0.00000   0.00000   0.00000
   2        2S          0.02880   0.36010   0.00000   0.00000   0.00000
   3        2PX         0.00000   0.00000   0.43880   0.00000   0.00000
   4        2PY         0.00000   0.00000   0.00000   0.43880   0.00000
   5        2PZ         0.00000   0.00000   0.00000   0.00000   0.43880
   6        3S         -0.01366   0.35633   0.00000   0.00000   0.00000
   7        3PX         0.00000   0.00000   0.22677   0.00000   0.00000
   8        3PY         0.00000   0.00000   0.00000   0.22677   0.00000
   9        3PZ         0.00000   0.00000   0.00000   0.00000   0.22677
  10        4XX        -0.00213   0.01022   0.00000   0.00000   0.00000
  11        4YY        -0.00213   0.01022   0.00000   0.00000   0.00000
  12        4ZZ        -0.00213   0.01022   0.00000   0.00000   0.00000
  13        4XY         0.00000   0.00000   0.00000   0.00000   0.03594
  14        4XZ         0.00000   0.00000   0.00000   0.03594   0.00000
  15        4YZ         0.00000   0.00000   0.03594   0.00000   0.00000
  16 2   H  1S          0.00005   0.13593   0.16927   0.16927   0.16927
  17        2S          0.00255   0.03720   0.13747   0.13747   0.13747
  18 3   H  1S          0.00005   0.13593  -0.16927  -0.16927   0.16927
  19        2S          0.00255   0.03720  -0.13747  -0.13747   0.13747
  20 4   H  1S          0.00005   0.13593  -0.16927   0.16927  -0.16927
  21        2S          0.00255   0.03720  -0.13747   0.13747  -0.13747
  22 5   H  1S          0.00005   0.13593   0.16927  -0.16927  -0.16927
  23        2S          0.00255   0.03720   0.13747  -0.13747  -0.13747
                           6         7         8         9        10
                        (A)--V    (T)--V    (T)--V    (T)--V    (T)--V
     Eigenvalues --     0.25968   0.33158   0.33158   0.33158   0.72334
   1 1   C  1S         -0.15630   0.00000   0.00000   0.00000   0.00000
   2        2S          0.09904   0.00000   0.00000   0.00000   0.00000
   3        2PX         0.00000   0.00000   0.00000   0.29329   0.00000
   4        2PY         0.00000   0.00000   0.29329   0.00000  -0.71925
   5        2PZ         0.00000   0.29329   0.00000   0.00000   0.00000
   6        3S          2.90084   0.00000   0.00000   0.00000   0.00000
   7        3PX         0.00000   0.00000   0.00000   1.53133   0.00000
   8        3PY         0.00000   0.00000   1.53133   0.00000   1.36250
   9        3PZ         0.00000   1.53133   0.00000   0.00000   0.00000
  10        4XX        -0.01306   0.00000   0.00000   0.00000   0.00000
  11        4YY        -0.01306   0.00000   0.00000   0.00000   0.00000
  12        4ZZ        -0.01306   0.00000   0.00000   0.00000   0.00000
  13        4XY         0.00000  -0.01521   0.00000   0.00000   0.00000
  14        4XZ         0.00000   0.00000  -0.01521   0.00000  -0.09929
  15        4YZ         0.00000   0.00000   0.00000  -0.01521   0.00000
  16 2   H  1S          0.00816  -0.04257  -0.04257  -0.04257  -0.31112
  17        2S         -1.07042  -1.19635  -1.19635  -1.19635  -0.05925
  18 3   H  1S          0.00816  -0.04257   0.04257   0.04257   0.31112
  19        2S         -1.07042  -1.19635   1.19635   1.19635   0.05925
  20 4   H  1S          0.00816   0.04257  -0.04257   0.04257  -0.31112
  21        2S         -1.07042   1.19635  -1.19635   1.19635  -0.05925
  22 5   H  1S          0.00816   0.04257   0.04257  -0.04257   0.31112
  23        2S         -1.07042   1.19635   1.19635  -1.19635   0.05925
                          11        12        13        14        15
                        (T)--V    (T)--V    (T)--V    (T)--V    (T)--V
     Eigenvalues --     0.72334   0.72334   1.19701   1.19701   1.19701
   1 1   C  1S          0.00000   0.00000   0.00000   0.00000   0.00000
   2        2S          0.00000   0.00000   0.00000   0.00000   0.00000
   3        2PX         0.00000  -0.71925   0.00000   0.00000  -0.92907
   4        2PY         0.00000   0.00000  -0.92907   0.00000   0.00000
   5        2PZ        -0.71925   0.00000   0.00000  -0.92907   0.00000
   6        3S          0.00000   0.00000   0.00000   0.00000   0.00000
   7        3PX         0.00000   1.36250   0.00000   0.00000   1.21707
   8        3PY         0.00000   0.00000   1.21707   0.00000   0.00000
   9        3PZ         1.36250   0.00000   0.00000   1.21707   0.00000
  10        4XX         0.00000   0.00000   0.00000   0.00000   0.00000
  11        4YY         0.00000   0.00000   0.00000   0.00000   0.00000
  12        4ZZ         0.00000   0.00000   0.00000   0.00000   0.00000
  13        4XY        -0.09929   0.00000   0.00000   0.22424   0.00000
  14        4XZ         0.00000   0.00000   0.22424   0.00000   0.00000
  15        4YZ         0.00000  -0.09929   0.00000   0.00000   0.22424
  16 2   H  1S         -0.31112  -0.31112   0.49268   0.49268   0.49268
  17        2S         -0.05925  -0.05925  -0.92668  -0.92668  -0.92668
  18 3   H  1S         -0.31112   0.31112  -0.49268   0.49268  -0.49268
  19        2S         -0.05925   0.05925   0.92668  -0.92668   0.92668
  20 4   H  1S          0.31112   0.31112   0.49268  -0.49268  -0.49268
  21        2S          0.05925   0.05925  -0.92668   0.92668   0.92668
  22 5   H  1S          0.31112  -0.31112  -0.49268  -0.49268   0.49268
  23        2S          0.05925  -0.05925   0.92668   0.92668  -0.92668
                          16        17        18        19        20
                        (A)--V    (A)--V    (E)--V    (E)--V    (T)--V
     Eigenvalues --     1.27372   1.32075   1.93840   1.93840   2.61196
   1 1   C  1S          0.06291  -0.13455   0.00000  -0.00000   0.00000
   2        2S         -1.41446  -1.67742   0.00000  -0.00000   0.00000
   3        2PX         0.00000   0.00000  -0.00000   0.00000   0.00000
   4        2PY         0.00000   0.00000  -0.00000   0.00000   0.00000
   5        2PZ         0.00000   0.00000  -0.00000   0.00000   0.20265
   6        3S          2.71037   5.04994  -0.00000   0.00000   0.00000
   7        3PX         0.00000   0.00000  -0.00000   0.00000   0.00000
   8        3PY         0.00000   0.00000  -0.00000   0.00000   0.00000
   9        3PZ         0.00000   0.00000  -0.00000   0.00000   0.41453
  10        4XX        -0.08167  -0.11445  -0.41517   0.90974   0.00000
  11        4YY        -0.08167  -0.11445   0.99545  -0.09532   0.00000
  12        4ZZ        -0.08167  -0.11445  -0.58028  -0.81442   0.00000
  13        4XY         0.00000   0.00000  -0.00000   0.00000   1.14133
  14        4XZ         0.00000   0.00000  -0.00000   0.00000   0.00000
  15        4YZ         0.00000   0.00000  -0.00000   0.00000   0.00000
  16 2   H  1S          0.53590  -0.48752   0.00000  -0.00000  -0.50632
  17        2S         -0.79909  -0.86721   0.00000  -0.00000   0.06276
  18 3   H  1S          0.53590  -0.48752   0.00000  -0.00000  -0.50632
  19        2S         -0.79909  -0.86721   0.00000  -0.00000   0.06276
  20 4   H  1S          0.53590  -0.48752   0.00000  -0.00000   0.50632
  21        2S         -0.79909  -0.86721   0.00000  -0.00000  -0.06276
  22 5   H  1S          0.53590  -0.48752   0.00000  -0.00000   0.50632
  23        2S         -0.79909  -0.86721   0.00000  -0.00000  -0.06276
                          21        22        23
                        (T)--V    (T)--V    (A)--V
     Eigenvalues --     2.61196   2.61196   4.62291
   1 1   C  1S          0.00000   0.00000  -0.48670
   2        2S          0.00000   0.00000   2.96312
   3        2PX         0.00000   0.20265   0.00000
   4        2PY         0.20265   0.00000   0.00000
   5        2PZ         0.00000   0.00000   0.00000
   6        3S          0.00000   0.00000   2.45792
   7        3PX         0.00000   0.41453   0.00000
   8        3PY         0.41453   0.00000   0.00000
   9        3PZ         0.00000   0.00000   0.00000
  10        4XX         0.00000   0.00000  -1.88541
  11        4YY         0.00000   0.00000  -1.88541
  12        4ZZ         0.00000   0.00000  -1.88541
  13        4XY         0.00000   0.00000   0.00000
  14        4XZ         1.14133   0.00000   0.00000
  15        4YZ         0.00000   1.14133   0.00000
  16 2   H  1S         -0.50632  -0.50632   0.13761
  17        2S          0.06276   0.06276  -0.50103
  18 3   H  1S          0.50632   0.50632   0.13761
  19        2S         -0.06276  -0.06276  -0.50103
  20 4   H  1S         -0.50632   0.50632   0.13761
  21        2S          0.06276  -0.06276  -0.50103
  22 5   H  1S          0.50632  -0.50632   0.13761
  23        2S         -0.06276   0.06276  -0.50103
     Density Matrix:
                           1         2         3         4         5
   1 1   C  1S          2.05822
   2        2S         -0.08292   0.26101
   3        2PX         0.00000   0.00000   0.38510
   4        2PY         0.00000   0.00000  -0.00000   0.38510
   5        2PZ         0.00000   0.00000  -0.00000  -0.00000   0.38510
   6        3S         -0.16598   0.25585   0.00000   0.00000   0.00000
   7        3PX         0.00000   0.00000   0.19902  -0.00000  -0.00000
   8        3PY         0.00000   0.00000  -0.00000   0.19902  -0.00000
   9        3PZ         0.00000   0.00000  -0.00000  -0.00000   0.19902
  10        4XX        -0.00822   0.00724   0.00000  -0.00000  -0.00000
  11        4YY        -0.00822   0.00724  -0.00000  -0.00000   0.00000
  12        4ZZ        -0.00822   0.00724  -0.00000  -0.00000   0.00000
  13        4XY         0.00000  -0.00000  -0.00000  -0.00000   0.03154
  14        4XZ         0.00000  -0.00000  -0.00000   0.03154  -0.00000
  15        4YZ         0.00000  -0.00000   0.03154   0.00000  -0.00000
  16 2   H  1S         -0.05285   0.09790   0.14855   0.14855   0.14855
  17        2S         -0.00942   0.02694   0.12064   0.12064   0.12064
  18 3   H  1S         -0.05285   0.09790  -0.14855  -0.14855   0.14855
  19        2S         -0.00942   0.02694  -0.12064  -0.12064   0.12064
  20 4   H  1S         -0.05285   0.09790  -0.14855   0.14855  -0.14855
  21        2S         -0.00942   0.02694  -0.12064   0.12064  -0.12064
  22 5   H  1S         -0.05285   0.09790   0.14855  -0.14855  -0.14855
  23        2S         -0.00942   0.02694   0.12064  -0.12064  -0.12064
                           6         7         8         9        10
   6        3S          0.25432
   7        3PX         0.00000   0.10285
   8        3PY         0.00000  -0.00000   0.10285
   9        3PZ         0.00000  -0.00000  -0.00000   0.10285
  10        4XX         0.00734   0.00000  -0.00000  -0.00000   0.00022
  11        4YY         0.00734  -0.00000  -0.00000   0.00000   0.00022
  12        4ZZ         0.00734  -0.00000  -0.00000   0.00000   0.00022
  13        4XY        -0.00000  -0.00000  -0.00000   0.01630  -0.00000
  14        4XZ        -0.00000  -0.00000   0.01630  -0.00000  -0.00000
  15        4YZ        -0.00000   0.01630   0.00000  -0.00000  -0.00000
  16 2   H  1S          0.09687   0.07677   0.07677   0.07677   0.00278
  17        2S          0.02644   0.06235   0.06235   0.06235   0.00075
  18 3   H  1S          0.09687  -0.07677  -0.07677   0.07677   0.00278
  19        2S          0.02644  -0.06235  -0.06235   0.06235   0.00075
  20 4   H  1S          0.09687  -0.07677   0.07677  -0.07677   0.00278
  21        2S          0.02644  -0.06235   0.06235  -0.06235   0.00075
  22 5   H  1S          0.09687   0.07677  -0.07677  -0.07677   0.00278
  23        2S          0.02644   0.06235  -0.06235  -0.06235   0.00075
                          11        12        13        14        15
  11        4YY         0.00022
  12        4ZZ         0.00022   0.00022
  13        4XY         0.00000  -0.00000   0.00258
  14        4XZ        -0.00000  -0.00000  -0.00000   0.00258
  15        4YZ        -0.00000  -0.00000  -0.00000  -0.00000   0.00258
  16 2   H  1S          0.00278   0.00278   0.01217   0.01217   0.01217
  17        2S          0.00075   0.00075   0.00988   0.00988   0.00988
  18 3   H  1S          0.00278   0.00278   0.01217  -0.01217  -0.01217
  19        2S          0.00075   0.00075   0.00988  -0.00988  -0.00988
  20 4   H  1S          0.00278   0.00278  -0.01217   0.01217  -0.01217
  21        2S          0.00075   0.00075  -0.00988   0.00988  -0.00988
  22 5   H  1S          0.00278   0.00278  -0.01217  -0.01217   0.01217
  23        2S          0.00075   0.00075  -0.00988  -0.00988   0.00988
                          16        17        18        19        20
  16 2   H  1S          0.20886
  17        2S          0.14972   0.11616
  18 3   H  1S         -0.02035  -0.03642   0.20886
  19        2S         -0.03642  -0.03501   0.14972   0.11616
  20 4   H  1S         -0.02035  -0.03642  -0.02035  -0.03642   0.20886
  21        2S         -0.03642  -0.03501  -0.03642  -0.03501   0.14972
  22 5   H  1S         -0.02035  -0.03642  -0.02035  -0.03642  -0.02035
  23        2S         -0.03642  -0.03501  -0.03642  -0.03501  -0.03642
                          21        22        23
  21        2S          0.11616
  22 5   H  1S         -0.03642   0.20886
  23        2S         -0.03501   0.14972   0.11616
    Full Mulliken population analysis:
                           1         2         3         4         5
   1 1   C  1S          2.05822
   2        2S         -0.01816   0.26101
   3        2PX         0.00000   0.00000   0.38510
   4        2PY         0.00000   0.00000   0.00000   0.38510
   5        2PZ         0.00000   0.00000   0.00000   0.00000   0.38510
   6        3S         -0.03058   0.20782   0.00000   0.00000   0.00000
   7        3PX         0.00000   0.00000   0.11339   0.00000   0.00000
   8        3PY         0.00000   0.00000   0.00000   0.11339   0.00000
   9        3PZ         0.00000   0.00000   0.00000   0.00000   0.11339
  10        4XX        -0.00065   0.00514   0.00000   0.00000   0.00000
  11        4YY        -0.00065   0.00514   0.00000   0.00000   0.00000
  12        4ZZ        -0.00065   0.00514   0.00000   0.00000   0.00000
  13        4XY        -0.00000   0.00000   0.00000   0.00000   0.00000
  14        4XZ        -0.00000   0.00000   0.00000   0.00000   0.00000
  15        4YZ        -0.00000   0.00000   0.00000   0.00000   0.00000
  16 2   H  1S         -0.00189   0.02804   0.03277   0.03277   0.03277
  17        2S         -0.00089   0.01307   0.01853   0.01853   0.01853
  18 3   H  1S         -0.00189   0.02804   0.03277   0.03277   0.03277
  19        2S         -0.00089   0.01307   0.01853   0.01853   0.01853
  20 4   H  1S         -0.00189   0.02804   0.03277   0.03277   0.03277
  21        2S         -0.00089   0.01307   0.01853   0.01853   0.01853
  22 5   H  1S         -0.00189   0.02804   0.03277   0.03277   0.03277
  23        2S         -0.00089   0.01307   0.01853   0.01853   0.01853
                           6         7         8         9        10
   6        3S          0.25432
   7        3PX         0.00000   0.10285
   8        3PY         0.00000   0.00000   0.10285
   9        3PZ         0.00000   0.00000   0.00000   0.10285
  10        4XX         0.00462   0.00000   0.00000   0.00000   0.00022
  11        4YY         0.00462   0.00000   0.00000   0.00000   0.00007
  12        4ZZ         0.00462   0.00000   0.00000   0.00000   0.00007
  13        4XY         0.00000   0.00000   0.00000   0.00000   0.00000
  14        4XZ         0.00000   0.00000   0.00000   0.00000   0.00000
  15        4YZ         0.00000   0.00000   0.00000   0.00000   0.00000
  16 2   H  1S          0.03730   0.02289   0.02289   0.02289   0.00067
  17        2S          0.01887   0.02085   0.02085   0.02085   0.00029
  18 3   H  1S          0.03730   0.02289   0.02289   0.02289   0.00067
  19        2S          0.01887   0.02085   0.02085   0.02085   0.00029
  20 4   H  1S          0.03730   0.02289   0.02289   0.02289   0.00067
  21        2S          0.01887   0.02085   0.02085   0.02085   0.00029
  22 5   H  1S          0.03730   0.02289   0.02289   0.02289   0.00067
  23        2S          0.01887   0.02085   0.02085   0.02085   0.00029
                          11        12        13        14        15
  11        4YY         0.00022
  12        4ZZ         0.00007   0.00022
  13        4XY        -0.00000   0.00000   0.00258
  14        4XZ         0.00000   0.00000   0.00000   0.00258
  15        4YZ         0.00000   0.00000   0.00000   0.00000   0.00258
  16 2   H  1S          0.00067   0.00067   0.00244   0.00244   0.00244
  17        2S          0.00029   0.00029   0.00045   0.00045   0.00045
  18 3   H  1S          0.00067   0.00067   0.00244   0.00244   0.00244
  19        2S          0.00029   0.00029   0.00045   0.00045   0.00045
  20 4   H  1S          0.00067   0.00067   0.00244   0.00244   0.00244
  21        2S          0.00029   0.00029   0.00045   0.00045   0.00045
  22 5   H  1S          0.00067   0.00067   0.00244   0.00244   0.00244
  23        2S          0.00029   0.00029   0.00045   0.00045   0.00045
                          16        17        18        19        20
  16 2   H  1S          0.20886
  17        2S          0.09856   0.11616
  18 3   H  1S         -0.00043  -0.00573   0.20886
  19        2S         -0.00573  -0.01453   0.09856   0.11616
  20 4   H  1S         -0.00043  -0.00573  -0.00043  -0.00573   0.20886
  21        2S         -0.00573  -0.01453  -0.00573  -0.01453   0.09856
  22 5   H  1S         -0.00043  -0.00573  -0.00043  -0.00573  -0.00043
  23        2S         -0.00573  -0.01453  -0.00573  -0.01453  -0.00573
                          21        22        23
  21        2S          0.11616
  22 5   H  1S         -0.00573   0.20886
  23        2S         -0.01453   0.09856   0.11616
     Gross orbital populations:
                           1
   1 1   C  1S          1.99641
   2        2S          0.63053
   3        2PX         0.70368
   4        2PY         0.70368
   5        2PZ         0.70368
   6        3S          0.67008
   7        3PX         0.39120
   8        3PY         0.39120
   9        3PZ         0.39120
  10        4XX         0.01330
  11        4YY         0.01330
  12        4ZZ         0.01330
  13        4XY         0.01415
  14        4XZ         0.01415
  15        4YZ         0.01415
  16 2   H  1S          0.52866
  17        2S          0.30534
  18 3   H  1S          0.52866
  19        2S          0.30534
  20 4   H  1S          0.52866
  21        2S          0.30534
  22 5   H  1S          0.52866
  23        2S          0.30534
          Condensed to atoms (all electrons):
               1          2          3          4          5
     1  C    5.099412   0.391149   0.391149   0.391149   0.391149
     2  H    0.391149   0.522145  -0.026432  -0.026432  -0.026432
     3  H    0.391149  -0.026432   0.522145  -0.026432  -0.026432
     4  H    0.391149  -0.026432  -0.026432   0.522145  -0.026432
     5  H    0.391149  -0.026432  -0.026432  -0.026432   0.522145
 Mulliken charges:
               1
     1  C   -0.664009
     2  H    0.166002
     3  H    0.166002
     4  H    0.166002
     5  H    0.166002
 Sum of Mulliken charges =   0.00000
 Mulliken charges with hydrogens summed into heavy atoms:
               1
     1  C    0.000000
 Electronic spatial extent (au):  <R**2>=             34.9263
 Charge=              0.0000 electrons
 Dipole moment (field-independent basis, Debye):
    X=              0.0000    Y=              0.0000    Z=              0.0000  Tot=              0.0000
 Quadrupole moment (field-independent basis, Debye-Ang):
   XX=             -8.3268   YY=             -8.3268   ZZ=             -8.3268
   XY=              0.0000   XZ=              0.0000   YZ=              0.0000
 Traceless Quadrupole moment (field-independent basis, Debye-Ang):
   XX=              0.0000   YY=              0.0000   ZZ=             -0.0000
   XY=              0.0000   XZ=              0.0000   YZ=              0.0000
 Octapole moment (field-independent basis, Debye-Ang**2):
  XXX=              0.0000  YYY=              0.0000  ZZZ=             -0.0000  XYY=              0.0000
  XXY=              0.0000  XXZ=              0.0000  XZZ=              0.0000  YZZ=              0.0000
  YYZ=              0.0000  XYZ=              0.6085
 Hexadecapole moment (field-independent basis, Debye-Ang**3):
 XXXX=            -15.4613 YYYY=            -15.4613 ZZZZ=            -15.4613 XXXY=             -0.0000
 XXXZ=              0.0000 YYYX=             -0.0000 YYYZ=              0.0000 ZZZX=             -0.0000
 ZZZY=              0.0000 XXYY=             -4.7411 XXZZ=             -4.7411 YYZZ=             -4.7411
 XXYZ=              0.0000 YYXZ=              0.0000 ZZXY=              0.0000
 N-N= 1.368651861194D+01 E-N=-1.204289106911D+02  KE= 4.026198687765D+01
 Symmetry A    KE= 3.447021630279D+01
 Symmetry B1   KE= 1.930590191618D+00
 Symmetry B2   KE= 1.930590191618D+00
 Symmetry B3   KE= 1.930590191618D+00
 Orbital energies and kinetic energies (alpha):
                                 1                 2
   1         (A)--O          -11.198280         15.998333
   2         (A)--O           -0.950259          1.236775
   3         (T)--O           -0.549719          0.965295
   4         (T)--O           -0.549719          0.965295
   5         (T)--O           -0.549719          0.965295
   6         (A)--V            0.259679          0.853074
   7         (T)--V            0.331577          0.721520
   8         (T)--V            0.331577          0.721520
   9         (T)--V            0.331577          0.721520
  10         (T)--V            0.723339          1.543301
  11         (T)--V            0.723339          1.543301
  12         (T)--V            0.723339          1.543301
  13         (T)--V            1.197015          2.783602
  14         (T)--V            1.197015          2.783602
  15         (T)--V            1.197015          2.783602
  16         (A)--V            1.273718          2.893687
  17         (A)--V            1.320754          1.879049
  18         (E)--V            1.938398          2.800000
  19         (E)--V            1.938398          2.800000
  20         (T)--V            2.611964          3.640911
  21         (T)--V            2.611964          3.640911
  22         (T)--V            2.611964          3.640911
  23         (A)--V            4.622910         10.133071
 Total kinetic energy from orbitals= 4.026198687765D+01
 Calculating spin-rotation constants.
 Leave Link  601 at Mon Dec 13 11:32:00 2021, MaxMem=  1610612736 cpu:               4.2 elap:               1.1
 (Enter /usr/local/g16reva03/legacy_cpu/g16/l9999.exe)

 Test job not archived.
 1\1\GINC-NODE156\SP\RHF\6-31G(d)\C1H4\ROOT\13-Dec-2021\0\\#P rhf/6-31g
 (d) geom=connectivity pop=full nmr test\\Methane NMR\\0,1\C,0,-0.85855
 518,-0.1756989,-0.07838426\H,0,-0.50190075,-1.1845089,-0.07838426\H,0,
 -0.50188234,0.32869929,0.79526725\H,0,-0.50188234,0.32869929,-0.952035
 76\H,0,-1.92855518,-0.17568572,-0.07838426\\Version=EM64L-G16RevA.03\S
 tate=1-A\HF=-40.1946397\RMSD=2.901e-09\Dipole=0.,0.,0.\Quadrupole=0.,0
 .,0.,0.,0.,0.\PG=T [O(C1),4C3(H1)]\\@


 Ideas are like rabbits. You get a couple and learn
 how to handle them, and pretty soon you have a dozen.
                                    -- John Steinbeck
 Job cpu time:       0 days  0 hours  0 minutes 28.2 seconds.
 Elapsed time:       0 days  0 hours  0 minutes  5.1 seconds.
 File lengths (MBytes):  RWF=     72 Int=      0 D2E=      0 Chk=      8 Scr=      8
 Normal termination of Gaussian 16 at Mon Dec 13 11:32:00 2021.
