************************************************************
This is node095 of the Cardinal research cluster.
Date: Thu Nov 11 11:55:33 EST 2021
************************************************************
 Set GAUSS_MDEF to "12GB".
 Set GAUSS_PDEF to "8".
 Entering Gaussian System, Link 0=g16
 Initial command:
 /usr/local/g16reva03/legacy_cpu/g16/l1.exe "/scratch/global/amkiny01/Gau-25923.inp" -scrdir="/scratch/global/amkiny01/"
 Default is to use a total of   8 processors:
                                8 via shared-memory
                                1 via Linda
 Entering Link 1 = /usr/local/g16reva03/legacy_cpu/g16/l1.exe PID=     25924.
  
 Copyright (c) 1988,1990,1992,1993,1995,1998,2003,2009,2016,
            Gaussian, Inc.  All Rights Reserved.
  
 This is part of the Gaussian(R) 16 program.  It is based on
 the Gaussian(R) 09 system (copyright 2009, Gaussian, Inc.),
 the Gaussian(R) 03 system (copyright 2003, Gaussian, Inc.),
 the Gaussian(R) 98 system (copyright 1998, Gaussian, Inc.),
 the Gaussian(R) 94 system (copyright 1995, Gaussian, Inc.),
 the Gaussian 92(TM) system (copyright 1992, Gaussian, Inc.),
 the Gaussian 90(TM) system (copyright 1990, Gaussian, Inc.),
 the Gaussian 88(TM) system (copyright 1988, Gaussian, Inc.),
 the Gaussian 86(TM) system (copyright 1986, Carnegie Mellon
 University), and the Gaussian 82(TM) system (copyright 1983,
 Carnegie Mellon University). Gaussian is a federally registered
 trademark of Gaussian, Inc.
  
 This software contains proprietary and confidential information,
 including trade secrets, belonging to Gaussian, Inc.
  
 This software is provided under written license and may be
 used, copied, transmitted, or stored only in accord with that
 written license.
  
 The following legend is applicable only to US Government
 contracts under FAR:
  
                    RESTRICTED RIGHTS LEGEND
  
 Use, reproduction and disclosure by the US Government is
 subject to restrictions as set forth in subparagraphs (a)
 and (c) of the Commercial Computer Software - Restricted
 Rights clause in FAR 52.227-19.
  
 Gaussian, Inc.
 340 Quinnipiac St., Bldg. 40, Wallingford CT 06492
  
  
 ---------------------------------------------------------------
 Warning -- This program may not be used in any manner that
 competes with the business of Gaussian, Inc. or will provide
 assistance to any competitor of Gaussian, Inc.  The licensee
 of this program is prohibited from giving any competitor of
 Gaussian, Inc. access to this program.  By using this program,
 the user acknowledges that Gaussian, Inc. is engaged in the
 business of creating and licensing software in the field of
 computational chemistry and represents and warrants to the
 licensee that it is not a competitor of Gaussian, Inc. and that
 it will not use this program in any manner prohibited above.
 ---------------------------------------------------------------
  

 Cite this work as:
 Gaussian 16, Revision A.03,
 M. J. Frisch, G. W. Trucks, H. B. Schlegel, G. E. Scuseria, 
 M. A. Robb, J. R. Cheeseman, G. Scalmani, V. Barone, 
 G. A. Petersson, H. Nakatsuji, X. Li, M. Caricato, A. V. Marenich, 
 J. Bloino, B. G. Janesko, R. Gomperts, B. Mennucci, H. P. Hratchian, 
 J. V. Ortiz, A. F. Izmaylov, J. L. Sonnenberg, D. Williams-Young, 
 F. Ding, F. Lipparini, F. Egidi, J. Goings, B. Peng, A. Petrone, 
 T. Henderson, D. Ranasinghe, V. G. Zakrzewski, J. Gao, N. Rega, 
 G. Zheng, W. Liang, M. Hada, M. Ehara, K. Toyota, R. Fukuda, 
 J. Hasegawa, M. Ishida, T. Nakajima, Y. Honda, O. Kitao, H. Nakai, 
 T. Vreven, K. Throssell, J. A. Montgomery, Jr., J. E. Peralta, 
 F. Ogliaro, M. J. Bearpark, J. J. Heyd, E. N. Brothers, K. N. Kudin, 
 V. N. Staroverov, T. A. Keith, R. Kobayashi, J. Normand, 
 K. Raghavachari, A. P. Rendell, J. C. Burant, S. S. Iyengar, 
 J. Tomasi, M. Cossi, J. M. Millam, M. Klene, C. Adamo, R. Cammi, 
 J. W. Ochterski, R. L. Martin, K. Morokuma, O. Farkas, 
 J. B. Foresman, and D. J. Fox, Gaussian, Inc., Wallingford CT, 2016.
 
 ******************************************
 Gaussian 16:  EM64L-G16RevA.03 25-Dec-2016
                11-Nov-2021 
 ******************************************
 ------------------------
 #T RHF/6-31G(d) Opt Test
 ------------------------
 ------------------------------
 Ethylene Geometry Optimization
 ------------------------------
 Symbolic Z-matrix:
 Charge =  0 Multiplicity = 1
 C
 C                    1    CC
 H                    1    CH       2    HCC
 H                    1    CH       2    HCC      3     180.     0
 H                    2    CH       1    HCC      3     180.     0
 H                    2    CH       1    HCC      4     180.     0
       Variables:
  CC                    1.21                     
  CH                    1.07                     
  HCC                 121.5                      
 

 GradGradGradGradGradGradGradGradGradGradGradGradGradGradGradGradGradGrad
 Initialization pass.
                           ----------------------------
                           !    Initial Parameters    !
                           ! (Angstroms and Degrees)  !
 --------------------------                            --------------------------
 ! Name  Definition              Value          Derivative Info.                !
 --------------------------------------------------------------------------------
 ! R1    R(1,2)                  1.21           estimate D2E/DX2                !
 ! R2    R(1,3)                  1.07           estimate D2E/DX2                !
 ! R3    R(1,4)                  1.07           estimate D2E/DX2                !
 ! R4    R(2,5)                  1.07           estimate D2E/DX2                !
 ! R5    R(2,6)                  1.07           estimate D2E/DX2                !
 ! A1    A(2,1,3)              121.5            estimate D2E/DX2                !
 ! A2    A(2,1,4)              121.5            estimate D2E/DX2                !
 ! A3    A(3,1,4)              117.0            estimate D2E/DX2                !
 ! A4    A(1,2,5)              121.5            estimate D2E/DX2                !
 ! A5    A(1,2,6)              121.5            estimate D2E/DX2                !
 ! A6    A(5,2,6)              117.0            estimate D2E/DX2                !
 ! D1    D(3,1,2,5)            180.0            estimate D2E/DX2                !
 ! D2    D(3,1,2,6)              0.0            estimate D2E/DX2                !
 ! D3    D(4,1,2,5)              0.0            estimate D2E/DX2                !
 ! D4    D(4,1,2,6)            180.0            estimate D2E/DX2                !
 --------------------------------------------------------------------------------
 Number of steps in this run=     25 maximum allowed number of steps=    100.
 GradGradGradGradGradGradGradGradGradGradGradGradGradGradGradGradGradGrad

                    Distance matrix (angstroms):
                    1          2          3          4          5
     1  C    0.000000
     2  C    1.210000   0.000000
     3  H    1.070000   1.990467   0.000000
     4  H    1.070000   1.990467   1.824650   0.000000
     5  H    1.990467   1.070000   2.957975   2.328147   0.000000
     6  H    1.990467   1.070000   2.328147   2.957975   1.824650
                    6
     6  H    0.000000
 Framework group  D2H[C2"(C.C),SG(H4)]
 Deg. of freedom     3
                         Standard orientation:                         
 ---------------------------------------------------------------------
 Center     Atomic      Atomic             Coordinates (Angstroms)
 Number     Number       Type             X           Y           Z
 ---------------------------------------------------------------------
      1          6           0       -0.000000    0.000000    0.605000
      2          6           0        0.000000    0.000000   -0.605000
      3          1           0        0.000000    0.912325    1.164073
      4          1           0       -0.000000   -0.912325    1.164073
      5          1           0       -0.000000   -0.912325   -1.164073
      6          1           0        0.000000    0.912325   -1.164073
 ---------------------------------------------------------------------
 Rotational constants (GHZ):         150.6166336          35.4719596          28.7103420
    38 basis functions,    72 primitive gaussians,    38 cartesian basis functions
     8 alpha electrons        8 beta electrons
       nuclear repulsion energy        35.3864703533 Hartrees.
 NAtoms=    6 NActive=    6 NUniq=    2 SFac= 4.00D+00 NAtFMM=   60 NAOKFM=F Big=F
 ExpMin= 1.61D-01 ExpMax= 3.05D+03 ExpMxC= 4.57D+02 IAcc=3 IRadAn=         5 AccDes= 0.00D+00
 Harris functional with IExCor=  205 and IRadAn=       5 diagonalized for initial guess.
 HarFok:  IExCor=  205 AccDes= 0.00D+00 IRadAn=         5 IDoV= 1 UseB2=F ITyADJ=14
 ICtDFT=  3500011 ScaDFX=  1.000000  1.000000  1.000000  1.000000
 FoFCou: FMM=F IPFlag=           0 FMFlag=      100000 FMFlg1=           0
         NFxFlg=           0 DoJE=T BraDBF=F KetDBF=T FulRan=T
         wScrn=  0.000000 ICntrl=       500 IOpCl=  0 I1Cent=   200000004 NGrid=           0
         NMat0=    1 NMatS0=      1 NMatT0=    0 NMatD0=    1 NMtDS0=    0 NMtDT0=    0
 Petite list used in FoFCou.
 Initial guess orbital symmetries:
       Occupied  (AG) (B1U) (AG) (B1U) (B2U) (AG) (B3G) (B3U)
       Virtual   (B2G) (B2U) (AG) (B1U) (B3G) (B1U) (AG) (B3U)
                 (B2U) (B2G) (AG) (B1U) (B2U) (B3G) (B1U) (AG)
                 (B1U) (B3G) (B1G) (B3U) (AG) (AU) (B2U) (AG) (B1U)
                 (B2G) (B3G) (B1U) (AG) (B1U)
 The electronic state of the initial guess is 1-AG.
 SCF Done:  E(RHF) =  -78.0127863384     A.U. after    9 cycles
            NFock=  9  Conv=0.27D-08     -V/T= 1.9945

 **********************************************************************

            Population analysis using the SCF density.

 **********************************************************************

 Orbital symmetries:
       Occupied  (AG) (B1U) (AG) (B1U) (B2U) (AG) (B3G) (B3U)
       Virtual   (B2G) (AG) (B2U) (B1U) (B3G) (B1U) (AG) (B3U)
                 (B2U) (AG) (B2G) (B1U) (B2U) (B3G) (AG) (B1U)
                 (B1U) (B3G) (B1G) (B3U) (AG) (AU) (B2U) (AG) (B1U)
                 (B2G) (B3G) (B1U) (AG) (B1U)
 The electronic state is 1-AG.
 Alpha  occ. eigenvalues --  -11.20453 -11.20115  -1.06885  -0.77698  -0.65877
 Alpha  occ. eigenvalues --   -0.60038  -0.48542  -0.40263
 Alpha virt. eigenvalues --    0.21213   0.26816   0.28733   0.32174   0.40245
 Alpha virt. eigenvalues --    0.51331   0.62728   0.74666   0.80241   0.85137
 Alpha virt. eigenvalues --    0.91594   1.04757   1.08050   1.18685   1.22148
 Alpha virt. eigenvalues --    1.23451   1.43788   1.56530   1.77921   1.80822
 Alpha virt. eigenvalues --    2.17252   2.18825   2.39632   2.51739   2.72909
 Alpha virt. eigenvalues --    2.85148   3.17599   3.29048   4.56805   4.68817
          Condensed to atoms (all electrons):
 Mulliken charges:
               1
     1  C   -0.339789
     2  C   -0.339789
     3  H    0.169894
     4  H    0.169894
     5  H    0.169894
     6  H    0.169894
 Sum of Mulliken charges =  -0.00000
 Mulliken charges with hydrogens summed into heavy atoms:
               1
     1  C   -0.000000
     2  C   -0.000000
 Electronic spatial extent (au):  <R**2>=             76.1436
 Charge=              0.0000 electrons
 Dipole moment (field-independent basis, Debye):
    X=             -0.0000    Y=              0.0000    Z=              0.0000  Tot=              0.0000
 Calling FoFJK, ICntrl=      2127 FMM=F ISym2X=1 I1Cent= 0 IOpClX= 0 NMat=1 NMatS=1 NMatT=0.

 GradGradGradGradGradGradGradGradGradGradGradGradGradGradGradGradGradGrad
 FormGI is forming the generalized inverse of G from B-inverse, IUseBI=4.
 Internal  Forces:  Max     0.203669965 RMS     0.052763190
 Step number   1 out of a maximum of   25
 All quantities printed in internal units (Hartrees-Bohrs-Radians)
 Mixed Optimization -- RFO/linear search
 Second derivative matrix not updated -- first step.
 ITU=  0
     Eigenvalues ---    0.04602   0.04602   0.04602   0.16000   0.16000
     Eigenvalues ---    0.16000   0.16000   0.37230   0.37230   0.37230
     Eigenvalues ---    0.37230   0.99955
 Linear search not attempted -- first point.
 Iteration  1 RMS(Cart)=  0.07767195 RMS(Int)=  0.00017194
 Iteration  2 RMS(Cart)=  0.00018423 RMS(Int)=  0.00000002
 Iteration  3 RMS(Cart)=  0.00000002 RMS(Int)=  0.00000000
 ClnCor:  largest displacement from symmetrization is 1.70D-14 for atom     2.
 Variable       Old X    -DE/DX   Delta X   Delta X   Delta X     New X
                                 (Linear)    (Quad)   (Total)
    R1        2.28657   0.20367   0.00000   0.19576   0.19576   2.48233
    R2        2.02201   0.00616   0.00000   0.01492   0.01492   2.03693
    R3        2.02201   0.00616   0.00000   0.01492   0.01492   2.03693
    R4        2.02201   0.00616   0.00000   0.01492   0.01492   2.03693
    R5        2.02201   0.00616   0.00000   0.01492   0.01492   2.03693
    A1        2.12058   0.00324   0.00000   0.01612   0.01612   2.13670
    A2        2.12058   0.00324   0.00000   0.01612   0.01612   2.13670
    A3        2.04204  -0.00648   0.00000  -0.03225  -0.03225   2.00979
    A4        2.12058   0.00324   0.00000   0.01612   0.01612   2.13670
    A5        2.12058   0.00324   0.00000   0.01612   0.01612   2.13670
    A6        2.04204  -0.00648   0.00000  -0.03225  -0.03225   2.00979
    D1        3.14159  -0.00000   0.00000  -0.00000   0.00000   3.14159
    D2        0.00000   0.00000   0.00000   0.00000   0.00000   0.00000
    D3        0.00000  -0.00000   0.00000  -0.00000   0.00000   0.00000
    D4        3.14159   0.00000   0.00000   0.00000   0.00000   3.14159
         Item               Value     Threshold  Converged?
 Maximum Force            0.203670     0.000450     NO 
 RMS     Force            0.052763     0.000300     NO 
 Maximum Displacement     0.133537     0.001800     NO 
 RMS     Displacement     0.077707     0.001200     NO 
 GradGradGradGradGradGradGradGradGradGradGradGradGradGradGradGradGradGrad

                    Distance matrix (angstroms):
                    1          2          3          4          5
     1  C    0.000000
     2  C    1.313591   0.000000
     3  H    1.077895   2.098986   0.000000
     4  H    1.077895   2.098986   1.819715   0.000000
     5  H    2.098986   1.077895   3.067520   2.469477   0.000000
     6  H    2.098986   1.077895   2.469477   3.067520   1.819715
                    6
     6  H    0.000000
 Framework group  D2H[C2"(C.C),SG(H4)]
 Deg. of freedom     3
                         Standard orientation:                         
 ---------------------------------------------------------------------
 Center     Atomic      Atomic             Coordinates (Angstroms)
 Number     Number       Type             X           Y           Z
 ---------------------------------------------------------------------
      1          6           0       -0.000000   -0.000000    0.656796
      2          6           0        0.000000   -0.000000   -0.656796
      3          1           0       -0.000000    0.909857    1.234738
      4          1           0       -0.000000   -0.909857    1.234738
      5          1           0       -0.000000   -0.909857   -1.234738
      6          1           0        0.000000    0.909857   -1.234738
 ---------------------------------------------------------------------
 Rotational constants (GHZ):         151.4346894          30.6305802          25.4773050
    38 basis functions,    72 primitive gaussians,    38 cartesian basis functions
     8 alpha electrons        8 beta electrons
       nuclear repulsion energy        33.6908329156 Hartrees.
 NAtoms=    6 NActive=    6 NUniq=    2 SFac= 4.00D+00 NAtFMM=   60 NAOKFM=F Big=F
 Initial guess from the checkpoint file:  "/scratch/global/amkiny01/Gau-25924.chk"
 B after Tr=     0.000000    0.000000   -0.000000
         Rot=    1.000000   -0.000000    0.000000    0.000000 Ang=   0.00 deg.
 Initial guess orbital symmetries:
       Occupied  (AG) (B1U) (AG) (B1U) (B2U) (AG) (B3G) (B3U)
       Virtual   (B2G) (AG) (B2U) (B1U) (B3G) (B1U) (AG) (B3U)
                 (B2U) (AG) (B2G) (B1U) (B2U) (B3G) (AG) (B1U)
                 (B1U) (B3G) (B1G) (B3U) (AG) (AU) (B2U) (AG) (B1U)
                 (B2G) (B3G) (B1U) (AG) (B1U)
 ExpMin= 1.61D-01 ExpMax= 3.05D+03 ExpMxC= 4.57D+02 IAcc=2 IRadAn=         4 AccDes= 0.00D+00
 Harris functional with IExCor=  205 and IRadAn=       4 diagonalized for initial guess.
 HarFok:  IExCor=  205 AccDes= 0.00D+00 IRadAn=         4 IDoV= 1 UseB2=F ITyADJ=14
 ICtDFT=  3500011 ScaDFX=  1.000000  1.000000  1.000000  1.000000
 FoFCou: FMM=F IPFlag=           0 FMFlag=      100000 FMFlg1=           0
         NFxFlg=           0 DoJE=T BraDBF=F KetDBF=T FulRan=T
         wScrn=  0.000000 ICntrl=       500 IOpCl=  0 I1Cent=   200000004 NGrid=           0
         NMat0=    1 NMatS0=      1 NMatT0=    0 NMatD0=    1 NMtDS0=    0 NMtDT0=    0
 Petite list used in FoFCou.
 SCF Done:  E(RHF) =  -78.0316151676     A.U. after    9 cycles
            NFock=  9  Conv=0.40D-08     -V/T= 2.0007
 Calling FoFJK, ICntrl=      2127 FMM=F ISym2X=1 I1Cent= 0 IOpClX= 0 NMat=1 NMatS=1 NMatT=0.

 GradGradGradGradGradGradGradGradGradGradGradGradGradGradGradGradGradGrad
 Using GEDIIS/GDIIS optimizer.
 FormGI is forming the generalized inverse of G from B-inverse, IUseBI=4.
 Internal  Forces:  Max     0.003200533 RMS     0.001570932
 Step number   2 out of a maximum of   25
 All quantities printed in internal units (Hartrees-Bohrs-Radians)
 Mixed Optimization -- RFO/linear search
 Trust test= 8.84D-01 RLast= 2.06D-01 DXMaxT set to 5.05D-01
 ITU=  1  0
 Use linear search instead of GDIIS.
     Eigenvalues ---    0.04602   0.04602   0.04602   0.16000   0.16000
     Eigenvalues ---    0.16000   0.16277   0.37230   0.37230   0.37230
     Eigenvalues ---    0.37406   1.01369
 Quartic linear search produced a step of  0.00983.
 Iteration  1 RMS(Cart)=  0.00755246 RMS(Int)=  0.00003558
 Iteration  2 RMS(Cart)=  0.00003574 RMS(Int)=  0.00000000
 Iteration  3 RMS(Cart)=  0.00000000 RMS(Int)=  0.00000000
 ClnCor:  largest displacement from symmetrization is 3.33D-14 for atom     5.
 Variable       Old X    -DE/DX   Delta X   Delta X   Delta X     New X
                                 (Linear)    (Quad)   (Total)
    R1        2.48233   0.00320   0.00192   0.00272   0.00464   2.48697
    R2        2.03693  -0.00121   0.00015  -0.00328  -0.00313   2.03380
    R3        2.03693  -0.00121   0.00015  -0.00328  -0.00313   2.03380
    R4        2.03693  -0.00121   0.00015  -0.00328  -0.00313   2.03380
    R5        2.03693  -0.00121   0.00015  -0.00328  -0.00313   2.03380
    A1        2.13670  -0.00132   0.00016  -0.00820  -0.00804   2.12866
    A2        2.13670  -0.00132   0.00016  -0.00820  -0.00804   2.12866
    A3        2.00979   0.00264  -0.00032   0.01640   0.01608   2.02587
    A4        2.13670  -0.00132   0.00016  -0.00820  -0.00804   2.12866
    A5        2.13670  -0.00132   0.00016  -0.00820  -0.00804   2.12866
    A6        2.00979   0.00264  -0.00032   0.01640   0.01608   2.02587
    D1        3.14159  -0.00000   0.00000  -0.00000   0.00000   3.14159
    D2        0.00000   0.00000   0.00000   0.00000   0.00000   0.00000
    D3        0.00000  -0.00000   0.00000  -0.00000   0.00000   0.00000
    D4        3.14159   0.00000   0.00000   0.00000   0.00000   3.14159
         Item               Value     Threshold  Converged?
 Maximum Force            0.003201     0.000450     NO 
 RMS     Force            0.001571     0.000300     NO 
 Maximum Displacement     0.013193     0.001800     NO 
 RMS     Displacement     0.007547     0.001200     NO 
 GradGradGradGradGradGradGradGradGradGradGradGradGradGradGradGradGradGrad

                    Distance matrix (angstroms):
                    1          2          3          4          5
     1  C    0.000000
     2  C    1.316048   0.000000
     3  H    1.076239   2.095201   0.000000
     4  H    1.076239   2.095201   1.826139   0.000000
     5  H    2.095201   1.076239   3.060120   2.455513   0.000000
     6  H    2.095201   1.076239   2.455513   3.060120   1.826139
                    6
     6  H    0.000000
 Framework group  D2H[C2"(C.C),SG(H4)]
 Deg. of freedom     3
                         Standard orientation:                         
 ---------------------------------------------------------------------
 Center     Atomic      Atomic             Coordinates (Angstroms)
 Number     Number       Type             X           Y           Z
 ---------------------------------------------------------------------
      1          6           0       -0.000000   -0.000000    0.658024
      2          6           0        0.000000   -0.000000   -0.658024
      3          1           0       -0.000000    0.913070    1.227757
      4          1           0       -0.000000   -0.913070    1.227757
      5          1           0       -0.000000   -0.913070   -1.227757
      6          1           0        0.000000    0.913070   -1.227757
 ---------------------------------------------------------------------
 Rotational constants (GHZ):         150.3710265          30.6873754          25.4862083
    38 basis functions,    72 primitive gaussians,    38 cartesian basis functions
     8 alpha electrons        8 beta electrons
       nuclear repulsion energy        33.6940379381 Hartrees.
 NAtoms=    6 NActive=    6 NUniq=    2 SFac= 4.00D+00 NAtFMM=   60 NAOKFM=F Big=F
 Initial guess from the checkpoint file:  "/scratch/global/amkiny01/Gau-25924.chk"
 B after Tr=    -0.000000    0.000000    0.000000
         Rot=    1.000000   -0.000000    0.000000    0.000000 Ang=   0.00 deg.
 Initial guess orbital symmetries:
       Occupied  (AG) (B1U) (AG) (B1U) (B2U) (AG) (B3G) (B3U)
       Virtual   (B2G) (AG) (B2U) (B1U) (B3G) (B1U) (AG) (B2U)
                 (B3U) (AG) (B2G) (B1U) (B2U) (B3G) (AG) (B1U)
                 (B1U) (B3G) (B3U) (B1G) (AU) (AG) (B2U) (AG) (B1U)
                 (B2G) (B1U) (B3G) (AG) (B1U)
 SCF Done:  E(RHF) =  -78.0317122538     A.U. after    7 cycles
            NFock=  7  Conv=0.41D-08     -V/T= 2.0006
 Calling FoFJK, ICntrl=      2127 FMM=F ISym2X=1 I1Cent= 0 IOpClX= 0 NMat=1 NMatS=1 NMatT=0.

 GradGradGradGradGradGradGradGradGradGradGradGradGradGradGradGradGradGrad
 Using GEDIIS/GDIIS optimizer.
 FormGI is forming the generalized inverse of G from B-inverse, IUseBI=4.
 Internal  Forces:  Max     0.000882751 RMS     0.000374163
 Step number   3 out of a maximum of   25
 All quantities printed in internal units (Hartrees-Bohrs-Radians)
 Mixed Optimization -- En-DIIS/RFO-DIIS
 Trust test= 1.22D+00 RLast= 2.89D-02 DXMaxT set to 5.05D-01
 ITU=  1  1  0
 Use linear search instead of GDIIS.
     Eigenvalues ---    0.04602   0.04602   0.04602   0.13025   0.16000
     Eigenvalues ---    0.16000   0.16000   0.37230   0.37230   0.37230
     Eigenvalues ---    0.37587   0.97784
 Quartic linear search produced a step of  0.30719.
 Iteration  1 RMS(Cart)=  0.00241737 RMS(Int)=  0.00000364
 Iteration  2 RMS(Cart)=  0.00000363 RMS(Int)=  0.00000000
 Iteration  3 RMS(Cart)=  0.00000000 RMS(Int)=  0.00000000
 ClnCor:  largest displacement from symmetrization is 3.50D-14 for atom     5.
 Variable       Old X    -DE/DX   Delta X   Delta X   Delta X     New X
                                 (Linear)    (Quad)   (Total)
    R1        2.48697   0.00088   0.00143   0.00018   0.00161   2.48858
    R2        2.03380  -0.00013  -0.00096   0.00052  -0.00044   2.03335
    R3        2.03380  -0.00013  -0.00096   0.00052  -0.00044   2.03335
    R4        2.03380  -0.00013  -0.00096   0.00052  -0.00044   2.03335
    R5        2.03380  -0.00013  -0.00096   0.00052  -0.00044   2.03335
    A1        2.12866  -0.00032  -0.00247  -0.00015  -0.00262   2.12604
    A2        2.12866  -0.00032  -0.00247  -0.00015  -0.00262   2.12604
    A3        2.02587   0.00065   0.00494   0.00030   0.00524   2.03111
    A4        2.12866  -0.00032  -0.00247  -0.00015  -0.00262   2.12604
    A5        2.12866  -0.00032  -0.00247  -0.00015  -0.00262   2.12604
    A6        2.02587   0.00065   0.00494   0.00030   0.00524   2.03111
    D1        3.14159  -0.00000   0.00000  -0.00000   0.00000   3.14159
    D2        0.00000   0.00000   0.00000   0.00000  -0.00000   0.00000
    D3        0.00000  -0.00000   0.00000  -0.00000   0.00000   0.00000
    D4        3.14159   0.00000   0.00000   0.00000   0.00000   3.14159
         Item               Value     Threshold  Converged?
 Maximum Force            0.000883     0.000450     NO 
 RMS     Force            0.000374     0.000300     NO 
 Maximum Displacement     0.003955     0.001800     NO 
 RMS     Displacement     0.002417     0.001200     NO 
 GradGradGradGradGradGradGradGradGradGradGradGradGradGradGradGradGradGrad

                    Distance matrix (angstroms):
                    1          2          3          4          5
     1  C    0.000000
     2  C    1.316900   0.000000
     3  H    1.076004   2.094263   0.000000
     4  H    1.076004   2.094263   1.828719   0.000000
     5  H    2.094263   1.076004   3.058304   2.451328   0.000000
     6  H    2.094263   1.076004   2.451328   3.058304   1.828719
                    6
     6  H    0.000000
 Framework group  D2H[C2"(C.C),SG(H4)]
 Deg. of freedom     3
                         Standard orientation:                         
 ---------------------------------------------------------------------
 Center     Atomic      Atomic             Coordinates (Angstroms)
 Number     Number       Type             X           Y           Z
 ---------------------------------------------------------------------
      1          6           0        0.000000   -0.000000    0.658450
      2          6           0        0.000000   -0.000000   -0.658450
      3          1           0       -0.000000    0.914360    1.225664
      4          1           0       -0.000000   -0.914360    1.225664
      5          1           0       -0.000000   -0.914360   -1.225664
      6          1           0        0.000000    0.914360   -1.225664
 ---------------------------------------------------------------------
 Rotational constants (GHZ):         149.9471019          30.7008771          25.4833050
    38 basis functions,    72 primitive gaussians,    38 cartesian basis functions
     8 alpha electrons        8 beta electrons
       nuclear repulsion energy        33.6900937102 Hartrees.
 NAtoms=    6 NActive=    6 NUniq=    2 SFac= 4.00D+00 NAtFMM=   60 NAOKFM=F Big=F
 Initial guess from the checkpoint file:  "/scratch/global/amkiny01/Gau-25924.chk"
 B after Tr=    -0.000000    0.000000   -0.000000
         Rot=    1.000000    0.000000    0.000000    0.000000 Ang=   0.00 deg.
 Initial guess orbital symmetries:
       Occupied  (AG) (B1U) (AG) (B1U) (B2U) (AG) (B3G) (B3U)
       Virtual   (B2G) (AG) (B2U) (B1U) (B3G) (B1U) (AG) (B2U)
                 (B3U) (AG) (B2G) (B1U) (B2U) (B3G) (AG) (B1U)
                 (B1U) (B3G) (B3U) (B1G) (AU) (AG) (B2U) (AG) (B1U)
                 (B2G) (B3G) (B1U) (AG) (B1U)
 SCF Done:  E(RHF) =  -78.0317181516     A.U. after    7 cycles
            NFock=  7  Conv=0.15D-08     -V/T= 2.0006
 Calling FoFJK, ICntrl=      2127 FMM=F ISym2X=1 I1Cent= 0 IOpClX= 0 NMat=1 NMatS=1 NMatT=0.

 GradGradGradGradGradGradGradGradGradGradGradGradGradGradGradGradGradGrad
 Using GEDIIS/GDIIS optimizer.
 FormGI is forming the generalized inverse of G from B-inverse, IUseBI=4.
 Internal  Forces:  Max     0.000050623 RMS     0.000014582
 Step number   4 out of a maximum of   25
 All quantities printed in internal units (Hartrees-Bohrs-Radians)
 Mixed Optimization -- En-DIIS/RFO-DIIS
 Swapping is turned off.
 Trust test= 1.00D+00 RLast= 9.26D-03 DXMaxT set to 5.05D-01
 ITU=  1  1  1  0
     Eigenvalues ---    0.04602   0.04602   0.04602   0.13108   0.16000
     Eigenvalues ---    0.16000   0.16000   0.37230   0.37230   0.37230
     Eigenvalues ---    0.37477   0.95773
 En-DIIS/RFO-DIIS/Sim-DIIS IScMMF=       -3 using points:     4    3
 RFO step:  Lambda=-4.61450721D-09.
 DidBck=F Rises=F RFO-DIIS coefs:    0.99558    0.00442
 Iteration  1 RMS(Cart)=  0.00003141 RMS(Int)=  0.00000000
 Iteration  2 RMS(Cart)=  0.00000000 RMS(Int)=  0.00000000
 ClnCor:  largest displacement from symmetrization is 1.80D-14 for atom     5.
 Variable       Old X    -DE/DX   Delta X   Delta X   Delta X     New X
                                 (Linear)    (Quad)   (Total)
    R1        2.48858   0.00005  -0.00001   0.00006   0.00005   2.48863
    R2        2.03335  -0.00001   0.00000  -0.00003  -0.00003   2.03332
    R3        2.03335  -0.00001   0.00000  -0.00003  -0.00003   2.03332
    R4        2.03335  -0.00001   0.00000  -0.00003  -0.00003   2.03332
    R5        2.03335  -0.00001   0.00000  -0.00003  -0.00003   2.03332
    A1        2.12604   0.00000   0.00001   0.00000   0.00002   2.12605
    A2        2.12604   0.00000   0.00001   0.00000   0.00002   2.12605
    A3        2.03111  -0.00001  -0.00002  -0.00001  -0.00003   2.03108
    A4        2.12604   0.00000   0.00001   0.00000   0.00002   2.12605
    A5        2.12604   0.00000   0.00001   0.00000   0.00002   2.12605
    A6        2.03111  -0.00001  -0.00002  -0.00001  -0.00003   2.03108
    D1        3.14159  -0.00000   0.00000  -0.00000   0.00000   3.14159
    D2        0.00000   0.00000   0.00000   0.00000  -0.00000   0.00000
    D3        0.00000  -0.00000   0.00000  -0.00000   0.00000   0.00000
    D4        3.14159   0.00000   0.00000   0.00000   0.00000   3.14159
         Item               Value     Threshold  Converged?
 Maximum Force            0.000051     0.000450     YES
 RMS     Force            0.000015     0.000300     YES
 Maximum Displacement     0.000044     0.001800     YES
 RMS     Displacement     0.000031     0.001200     YES
 Optimization completed.
    -- Stationary point found.
                           ----------------------------
                           !   Optimized Parameters   !
                           ! (Angstroms and Degrees)  !
 --------------------------                            --------------------------
 ! Name  Definition              Value          Derivative Info.                !
 --------------------------------------------------------------------------------
 ! R1    R(1,2)                  1.3169         -DE/DX =    0.0001              !
 ! R2    R(1,3)                  1.076          -DE/DX =    0.0                 !
 ! R3    R(1,4)                  1.076          -DE/DX =    0.0                 !
 ! R4    R(2,5)                  1.076          -DE/DX =    0.0                 !
 ! R5    R(2,6)                  1.076          -DE/DX =    0.0                 !
 ! A1    A(2,1,3)              121.813          -DE/DX =    0.0                 !
 ! A2    A(2,1,4)              121.813          -DE/DX =    0.0                 !
 ! A3    A(3,1,4)              116.374          -DE/DX =    0.0                 !
 ! A4    A(1,2,5)              121.813          -DE/DX =    0.0                 !
 ! A5    A(1,2,6)              121.813          -DE/DX =    0.0                 !
 ! A6    A(5,2,6)              116.374          -DE/DX =    0.0                 !
 ! D1    D(3,1,2,5)            180.0            -DE/DX =    0.0                 !
 ! D2    D(3,1,2,6)              0.0            -DE/DX =    0.0                 !
 ! D3    D(4,1,2,5)              0.0            -DE/DX =    0.0                 !
 ! D4    D(4,1,2,6)            180.0            -DE/DX =    0.0                 !
 --------------------------------------------------------------------------------
 GradGradGradGradGradGradGradGradGradGradGradGradGradGradGradGradGradGrad

                    Distance matrix (angstroms):
                    1          2          3          4          5
     1  C    0.000000
     2  C    1.316900   0.000000
     3  H    1.076004   2.094263   0.000000
     4  H    1.076004   2.094263   1.828719   0.000000
     5  H    2.094263   1.076004   3.058304   2.451328   0.000000
     6  H    2.094263   1.076004   2.451328   3.058304   1.828719
                    6
     6  H    0.000000
 Framework group  D2H[C2"(C.C),SG(H4)]
 Deg. of freedom     3
                         Standard orientation:                         
 ---------------------------------------------------------------------
 Center     Atomic      Atomic             Coordinates (Angstroms)
 Number     Number       Type             X           Y           Z
 ---------------------------------------------------------------------
      1          6           0        0.000000   -0.000000    0.658450
      2          6           0        0.000000   -0.000000   -0.658450
      3          1           0       -0.000000    0.914360    1.225664
      4          1           0       -0.000000   -0.914360    1.225664
      5          1           0       -0.000000   -0.914360   -1.225664
      6          1           0        0.000000    0.914360   -1.225664
 ---------------------------------------------------------------------
 Rotational constants (GHZ):         149.9471019          30.7008771          25.4833050

 **********************************************************************

            Population analysis using the SCF density.

 **********************************************************************

 Orbital symmetries:
       Occupied  (AG) (B1U) (AG) (B1U) (B2U) (AG) (B3G) (B3U)
       Virtual   (B2G) (AG) (B2U) (B1U) (B3G) (B1U) (AG) (B2U)
                 (B3U) (AG) (B2G) (B1U) (B2U) (B3G) (AG) (B1U)
                 (B1U) (B3G) (B3U) (B1G) (AU) (AG) (B2U) (AG) (B1U)
                 (B2G) (B3G) (B1U) (AG) (B1U)
 The electronic state is 1-AG.
 Alpha  occ. eigenvalues --  -11.22431 -11.22251  -1.03317  -0.78957  -0.64068
 Alpha  occ. eigenvalues --   -0.58652  -0.50195  -0.37439
 Alpha virt. eigenvalues --    0.18392   0.26680   0.29314   0.31114   0.39305
 Alpha virt. eigenvalues --    0.49570   0.66183   0.76798   0.77264   0.85238
 Alpha virt. eigenvalues --    0.89376   0.96627   1.10998   1.16371   1.21220
 Alpha virt. eigenvalues --    1.22146   1.34411   1.48559   1.74786   1.81517
 Alpha virt. eigenvalues --    2.13742   2.20065   2.34006   2.41946   2.63912
 Alpha virt. eigenvalues --    2.73153   3.08521   3.08895   4.53181   4.67323
          Condensed to atoms (all electrons):
 Mulliken charges:
               1
     1  C   -0.352729
     2  C   -0.352729
     3  H    0.176364
     4  H    0.176364
     5  H    0.176364
     6  H    0.176364
 Sum of Mulliken charges =   0.00000
 Mulliken charges with hydrogens summed into heavy atoms:
               1
     1  C    0.000000
     2  C    0.000000
 Electronic spatial extent (au):  <R**2>=             81.4180
 Charge=              0.0000 electrons
 Dipole moment (field-independent basis, Debye):
    X=             -0.0000    Y=              0.0000    Z=              0.0000  Tot=              0.0000
 B after Tr=    -0.000000    0.000000    0.000000
         Rot=    1.000000   -0.000000   -0.000000    0.000000 Ang=   0.00 deg.
 Final structure in terms of initial Z-matrix:
 C
 C,1,CC
 H,1,CH,2,HCC
 H,1,CH,2,HCC,3,180.,0
 H,2,CH,1,HCC,3,180.,0
 H,2,CH,1,HCC,4,180.,0
      Variables:
 CC=1.3169003
 CH=1.07600406
 HCC=121.81297846

 Test job not archived.
 1\1\GINC-NODE095\FOpt\RHF\6-31G(d)\C2H4\ROOT\11-Nov-2021\0\\#T RHF/6-3
 1G(d) Opt Test\\Ethylene Geometry Optimization\\0,1\C,0.,0.,-0.0534501
 504\C,0.,0.,1.2634501504\H,0.9143595273,0.,-0.6206638576\H,-0.91435952
 73,0.,-0.6206638576\H,-0.9143595273,0.,1.8306638576\H,0.9143595273,0.,
 1.8306638576\\Version=EM64L-G16RevA.03\State=1-AG\HF=-78.0317182\RMSD=
 1.501e-09\RMSF=1.878e-05\Dipole=0.,0.,0.\Quadrupole=0.7143063,-1.61826
 04,0.9039541,0.,0.,0.\PG=D02H [C2"(C1.C1),SG(H4)]\\@


 SI MONUMENTUM REQUIRIS, CIRCUMSPICE
     -- FROM SIR CHRISTOPHER WREN'S TOMBSTONE
 Job cpu time:       0 days  0 hours  0 minutes 57.0 seconds.
 Elapsed time:       0 days  0 hours  0 minutes  8.9 seconds.
 File lengths (MBytes):  RWF=     72 Int=      0 D2E=      0 Chk=      8 Scr=      8
 Normal termination of Gaussian 16 at Thu Nov 11 11:55:43 2021.
