************************************************************
This is node091 of the Cardinal research cluster.
Date: Wed Nov 17 09:54:13 EST 2021
************************************************************
 Set GAUSS_MDEF to "12GB".
 Set GAUSS_PDEF to "8".
 Entering Gaussian System, Link 0=g16
 Initial command:
 /usr/local/g16reva03/legacy_cpu/g16/l1.exe "/scratch/global/amkiny01/Gau-10802.inp" -scrdir="/scratch/global/amkiny01/"
 Default is to use a total of   8 processors:
                                8 via shared-memory
                                1 via Linda
 Entering Link 1 = /usr/local/g16reva03/legacy_cpu/g16/l1.exe PID=     10803.
  
 Copyright (c) 1988,1990,1992,1993,1995,1998,2003,2009,2016,
            Gaussian, Inc.  All Rights Reserved.
  
 This is part of the Gaussian(R) 16 program.  It is based on
 the Gaussian(R) 09 system (copyright 2009, Gaussian, Inc.),
 the Gaussian(R) 03 system (copyright 2003, Gaussian, Inc.),
 the Gaussian(R) 98 system (copyright 1998, Gaussian, Inc.),
 the Gaussian(R) 94 system (copyright 1995, Gaussian, Inc.),
 the Gaussian 92(TM) system (copyright 1992, Gaussian, Inc.),
 the Gaussian 90(TM) system (copyright 1990, Gaussian, Inc.),
 the Gaussian 88(TM) system (copyright 1988, Gaussian, Inc.),
 the Gaussian 86(TM) system (copyright 1986, Carnegie Mellon
 University), and the Gaussian 82(TM) system (copyright 1983,
 Carnegie Mellon University). Gaussian is a federally registered
 trademark of Gaussian, Inc.
  
 This software contains proprietary and confidential information,
 including trade secrets, belonging to Gaussian, Inc.
  
 This software is provided under written license and may be
 used, copied, transmitted, or stored only in accord with that
 written license.
  
 The following legend is applicable only to US Government
 contracts under FAR:
  
                    RESTRICTED RIGHTS LEGEND
  
 Use, reproduction and disclosure by the US Government is
 subject to restrictions as set forth in subparagraphs (a)
 and (c) of the Commercial Computer Software - Restricted
 Rights clause in FAR 52.227-19.
  
 Gaussian, Inc.
 340 Quinnipiac St., Bldg. 40, Wallingford CT 06492
  
  
 ---------------------------------------------------------------
 Warning -- This program may not be used in any manner that
 competes with the business of Gaussian, Inc. or will provide
 assistance to any competitor of Gaussian, Inc.  The licensee
 of this program is prohibited from giving any competitor of
 Gaussian, Inc. access to this program.  By using this program,
 the user acknowledges that Gaussian, Inc. is engaged in the
 business of creating and licensing software in the field of
 computational chemistry and represents and warrants to the
 licensee that it is not a competitor of Gaussian, Inc. and that
 it will not use this program in any manner prohibited above.
 ---------------------------------------------------------------
  

 Cite this work as:
 Gaussian 16, Revision A.03,
 M. J. Frisch, G. W. Trucks, H. B. Schlegel, G. E. Scuseria, 
 M. A. Robb, J. R. Cheeseman, G. Scalmani, V. Barone, 
 G. A. Petersson, H. Nakatsuji, X. Li, M. Caricato, A. V. Marenich, 
 J. Bloino, B. G. Janesko, R. Gomperts, B. Mennucci, H. P. Hratchian, 
 J. V. Ortiz, A. F. Izmaylov, J. L. Sonnenberg, D. Williams-Young, 
 F. Ding, F. Lipparini, F. Egidi, J. Goings, B. Peng, A. Petrone, 
 T. Henderson, D. Ranasinghe, V. G. Zakrzewski, J. Gao, N. Rega, 
 G. Zheng, W. Liang, M. Hada, M. Ehara, K. Toyota, R. Fukuda, 
 J. Hasegawa, M. Ishida, T. Nakajima, Y. Honda, O. Kitao, H. Nakai, 
 T. Vreven, K. Throssell, J. A. Montgomery, Jr., J. E. Peralta, 
 F. Ogliaro, M. J. Bearpark, J. J. Heyd, E. N. Brothers, K. N. Kudin, 
 V. N. Staroverov, T. A. Keith, R. Kobayashi, J. Normand, 
 K. Raghavachari, A. P. Rendell, J. C. Burant, S. S. Iyengar, 
 J. Tomasi, M. Cossi, J. M. Millam, M. Klene, C. Adamo, R. Cammi, 
 J. W. Ochterski, R. L. Martin, K. Morokuma, O. Farkas, 
 J. B. Foresman, and D. J. Fox, Gaussian, Inc., Wallingford CT, 2016.
 
 ******************************************
 Gaussian 16:  EM64L-G16RevA.03 25-Dec-2016
                17-Nov-2021 
 ******************************************
 %chk=products.chk
 ------------------------
 #T UHF/STO-3G nosymm opt
 ------------------------
 -----------------------
 H3CO --> H2COH Products
 -----------------------
 Symbolic Z-matrix:
 Charge =  0 Multiplicity = 2
 O                    -0.08723  -0.05837   0.69666 
 C                    -0.03333  -0.12339  -0.73084 
 H                     0.5933    0.53886   1.01571 
 H                     0.9728    0.03753  -1.05747 
 H                    -0.66823   0.63097  -1.14646 
 

 GradGradGradGradGradGradGradGradGradGradGradGradGradGradGradGradGradGrad
 Initialization pass.
                           ----------------------------
                           !    Initial Parameters    !
                           ! (Angstroms and Degrees)  !
 --------------------------                            --------------------------
 ! Name  Definition              Value          Derivative Info.                !
 --------------------------------------------------------------------------------
 ! R1    R(1,2)                  1.43           estimate D2E/DX2                !
 ! R2    R(1,3)                  0.96           estimate D2E/DX2                !
 ! R3    R(2,4)                  1.07           estimate D2E/DX2                !
 ! R4    R(2,5)                  1.07           estimate D2E/DX2                !
 ! A1    A(2,1,3)              109.4712         estimate D2E/DX2                !
 ! A2    A(1,2,4)              109.4712         estimate D2E/DX2                !
 ! A3    A(1,2,5)              109.4712         estimate D2E/DX2                !
 ! A4    A(4,2,5)              109.4712         estimate D2E/DX2                !
 ! D1    D(3,1,2,4)             30.0            estimate D2E/DX2                !
 ! D2    D(3,1,2,5)            -90.0            estimate D2E/DX2                !
 ! D3    D(1,2,4,5)           -120.0            estimate D2E/DX2                !
 --------------------------------------------------------------------------------
 Number of steps in this run=     21 maximum allowed number of steps=    100.
 GradGradGradGradGradGradGradGradGradGradGradGradGradGradGradGradGradGrad

                    Distance matrix (angstroms):
                    1          2          3          4          5
     1  O    0.000000
     2  C    1.430000   0.000000
     3  H    0.960000   1.970203   0.000000
     4  H    2.051796   1.070000   2.166438   0.000000
     5  H    2.051796   1.070000   2.504981   1.747303   0.000000
 Symmetry turned off by external request.
 Framework group  C1[X(CH3O)]
 Deg. of freedom     9
 Rotational constants (GHZ):         184.1456090          27.3027287          25.9266156
    13 basis functions,    39 primitive gaussians,    13 cartesian basis functions
     9 alpha electrons        8 beta electrons
       nuclear repulsion energy        34.6035547899 Hartrees.
 NAtoms=    5 NActive=    5 NUniq=    5 SFac= 1.00D+00 NAtFMM=   60 NAOKFM=F Big=F
 ExpMin= 1.69D-01 ExpMax= 1.31D+02 ExpMxC= 1.31D+02 IAcc=3 IRadAn=         5 AccDes= 0.00D+00
 Harris functional with IExCor=  205 and IRadAn=       5 diagonalized for initial guess.
 HarFok:  IExCor=  205 AccDes= 0.00D+00 IRadAn=         5 IDoV= 1 UseB2=F ITyADJ=14
 ICtDFT=  3500011 ScaDFX=  1.000000  1.000000  1.000000  1.000000
 FoFCou: FMM=F IPFlag=           0 FMFlag=      100000 FMFlg1=           0
         NFxFlg=           0 DoJE=T BraDBF=F KetDBF=T FulRan=T
         wScrn=  0.000000 ICntrl=       500 IOpCl=  0 I1Cent=   200000004 NGrid=           0
         NMat0=    1 NMatS0=      1 NMatT0=    0 NMatD0=    1 NMtDS0=    0 NMtDT0=    0
 Symmetry not used in FoFCou.
 Initial guess <Sx>= 0.0000 <Sy>= 0.0000 <Sz>= 0.5000 <S**2>= 0.7500 S= 0.5000
 SCF Done:  E(UHF) =  -112.896177640     A.U. after   15 cycles
            NFock= 15  Conv=0.86D-08     -V/T= 2.0060
 <Sx>= 0.0000 <Sy>= 0.0000 <Sz>= 0.5000 <S**2>= 0.7588 S= 0.5044
 <L.S>= 0.000000000000E+00
 Annihilation of the first spin contaminant:
 S**2 before annihilation     0.7588,   after     0.7501

 **********************************************************************

            Population analysis using the SCF density.

 **********************************************************************

 Alpha  occ. eigenvalues --  -20.25557 -11.07559  -1.28524  -0.88056  -0.61954
 Alpha  occ. eigenvalues --   -0.57974  -0.46328  -0.38975  -0.33532
 Alpha virt. eigenvalues --    0.55950   0.68601   0.72538   0.75459
  Beta  occ. eigenvalues --  -20.25574 -11.04425  -1.27792  -0.80437  -0.59737
  Beta  occ. eigenvalues --   -0.54980  -0.42505  -0.36237
  Beta virt. eigenvalues --    0.28037   0.58775   0.71720   0.76277   0.78663
          Condensed to atoms (all electrons):
          Atomic-Atomic Spin Densities.
 Mulliken charges and spin densities:
               1          2
     1  O   -0.311389  -0.047007
     2  C    0.018654   1.119214
     3  H    0.195720   0.030611
     4  H    0.044628  -0.057434
     5  H    0.052387  -0.045384
 Sum of Mulliken charges =  -0.00000   1.00000
 Mulliken charges and spin densities with hydrogens summed into heavy atoms:
               1          2
     1  O   -0.115669  -0.016396
     2  C    0.115669   1.016396
 Electronic spatial extent (au):  <R**2>=             72.1523
 Charge=             -0.0000 electrons
 Dipole moment (field-independent basis, Debye):
    X=              1.1514    Y=              1.0797    Z=             -0.5966  Tot=              1.6874
                          Isotropic Fermi Contact Couplings
        Atom                 a.u.       MegaHertz       Gauss      10(-4) cm-1
     1  O(17)              0.05823     -35.29661     -12.59471     -11.77368
     2  C(13)              0.42823     481.41006     171.77908     160.58111
     3  H(1)               0.01606      71.76542      25.60769      23.93837
     4  H(1)              -0.01783     -79.71245     -28.44339     -26.58921
     5  H(1)              -0.01168     -52.18629     -18.62137     -17.40747
 --------------------------------------------------------
       Center         ----  Spin Dipole Couplings  ----
                      3XX-RR        3YY-RR        3ZZ-RR
 --------------------------------------------------------
     1   Atom       -0.001877      0.175048     -0.173172
     2   Atom       -0.327344      0.716234     -0.388890
     3   Atom       -0.008209     -0.009974      0.018184
     4   Atom        0.091598     -0.034774     -0.056824
     5   Atom        0.001488      0.042600     -0.044087
 --------------------------------------------------------
                        XY            XZ            YZ
 --------------------------------------------------------
     1   Atom       -0.055963      0.026941      0.088442
     2   Atom        0.416409      0.101319      0.301905
     3   Atom       -0.003302      0.009561      0.010275
     4   Atom        0.032298     -0.052213      0.003273
     5   Atom       -0.061851      0.050973     -0.040111
 --------------------------------------------------------


 ---------------------------------------------------------------------------------
              Anisotropic Spin Dipole Couplings in Principal Axis System
 ---------------------------------------------------------------------------------

       Atom             a.u.   MegaHertz   Gauss  10(-4) cm-1        Axes

              Baa    -0.2023    14.635     5.222     4.882 -0.1976 -0.2514  0.9475
     1 O(17)  Bbb    -0.0052     0.380     0.135     0.127  0.9534  0.1755  0.2454
              Bcc     0.2075   -15.015    -5.358    -5.008 -0.2280  0.9518  0.2050
 
              Baa    -0.4748   -63.717   -22.736   -21.254  0.8401 -0.3894  0.3776
     2 C(13)  Bbb    -0.4636   -62.209   -22.198   -20.751 -0.4375 -0.0749  0.8961
              Bcc     0.9384   125.926    44.934    42.005  0.3207  0.9180  0.2333
 
              Baa    -0.0179    -9.570    -3.415    -3.192  0.5983  0.7150 -0.3618
     3 H(1)   Bbb    -0.0057    -3.045    -1.087    -1.016  0.7604 -0.6490 -0.0252
              Bcc     0.0236    12.615     4.501     4.208  0.2528  0.2600  0.9319
 
              Baa    -0.0777   -41.453   -14.791   -13.827  0.3344 -0.3193  0.8867
     4 H(1)   Bbb    -0.0364   -19.439    -6.936    -6.484 -0.0847  0.9269  0.3657
              Bcc     0.1141    60.892    21.728    20.312  0.9386  0.1974 -0.2829
 
              Baa    -0.0771   -41.155   -14.685   -13.728 -0.5439  0.0001  0.8391
     5 H(1)   Bbb    -0.0353   -18.814    -6.713    -6.276  0.6094  0.6875  0.3949
              Bcc     0.1124    59.969    21.399    20.004 -0.5769  0.7262 -0.3740
 

 ---------------------------------------------------------------------------------

 Calling FoFJK, ICntrl=      2127 FMM=F ISym2X=0 I1Cent= 0 IOpClX= 1 NMat=1 NMatS=1 NMatT=0.

 GradGradGradGradGradGradGradGradGradGradGradGradGradGradGradGradGradGrad
 FormGI is forming the generalized inverse of G from B-inverse, IUseBI=4.
 Internal  Forces:  Max     0.038828108 RMS     0.022401206
 Step number   1 out of a maximum of   21
 All quantities printed in internal units (Hartrees-Bohrs-Radians)
 Mixed Optimization -- RFO/linear search
 Second derivative matrix not updated -- first step.
 ITU=  0
     Eigenvalues ---    0.01295   0.04436   0.13039   0.16000   0.16000
     Eigenvalues ---    0.37230   0.37230   0.40989   0.55473
 Linear search not attempted -- first point.
 Maximum step size (   0.300) exceeded in Quadratic search.
    -- Step size scaled by   0.931
 Iteration  1 RMS(Cart)=  0.08301636 RMS(Int)=  0.03661472
 Iteration  2 RMS(Cart)=  0.02238899 RMS(Int)=  0.01646687
 Iteration  3 RMS(Cart)=  0.00101955 RMS(Int)=  0.01643707
 Iteration  4 RMS(Cart)=  0.00001437 RMS(Int)=  0.01643706
 Iteration  5 RMS(Cart)=  0.00000039 RMS(Int)=  0.01643706
 Variable       Old X    -DE/DX   Delta X   Delta X   Delta X     New X
                                 (Linear)    (Quad)   (Total)
    R1        2.70231  -0.01738   0.00000  -0.03672  -0.03672   2.66558
    R2        1.81414   0.03883   0.00000   0.06176   0.06176   1.87589
    R3        2.02201   0.02495   0.00000   0.05765   0.05765   2.07965
    R4        2.02201   0.02548   0.00000   0.05887   0.05887   2.08087
    A1        1.91063  -0.02544   0.00000  -0.12417  -0.12417   1.78646
    A2        1.91063   0.02480   0.00000   0.17975   0.15285   2.06348
    A3        1.91063   0.00536   0.00000   0.12527   0.09300   2.00363
    A4        1.91063   0.00748   0.00000   0.11363   0.08308   1.99372
    D1        0.52360   0.01093   0.00000   0.10163   0.10944   0.63304
    D2       -1.57080  -0.01670   0.00000  -0.22432  -0.23213  -1.80292
    D3       -2.09439  -0.02633   0.00000  -0.33308  -0.34541  -2.43980
         Item               Value     Threshold  Converged?
 Maximum Force            0.038828     0.000450     NO 
 RMS     Force            0.022401     0.000300     NO 
 Maximum Displacement     0.170080     0.001800     NO 
 RMS     Displacement     0.094728     0.001200     NO 
 GradGradGradGradGradGradGradGradGradGradGradGradGradGradGradGradGradGrad

                    Distance matrix (angstroms):
                    1          2          3          4          5
     1  O    0.000000
     2  C    1.410567   0.000000
     3  H    0.992680   1.890610   0.000000
     4  H    2.160855   1.100505   2.226899   0.000000
     5  H    2.122555   1.101151   2.594638   1.848883   0.000000
 Symmetry turned off by external request.
 Framework group  C1[X(CH3O)]
 Deg. of freedom     9
 Rotational constants (GHZ):         180.0352006          27.5929015          25.6168556
    13 basis functions,    39 primitive gaussians,    13 cartesian basis functions
     9 alpha electrons        8 beta electrons
       nuclear repulsion energy        34.4012529255 Hartrees.
 NAtoms=    5 NActive=    5 NUniq=    5 SFac= 1.00D+00 NAtFMM=   60 NAOKFM=F Big=F
 Initial guess from the checkpoint file:  "products.chk"
 B after Tr=    -0.011246    0.040256    0.053079
         Rot=    0.999808   -0.015315    0.012246    0.000410 Ang=  -2.25 deg.
 Initial guess <Sx>= 0.0000 <Sy>= 0.0000 <Sz>= 0.5000 <S**2>= 0.7588 S= 0.5044
 ExpMin= 1.69D-01 ExpMax= 1.31D+02 ExpMxC= 1.31D+02 IAcc=2 IRadAn=         4 AccDes= 0.00D+00
 Harris functional with IExCor=  205 and IRadAn=       4 diagonalized for initial guess.
 HarFok:  IExCor=  205 AccDes= 0.00D+00 IRadAn=         4 IDoV= 1 UseB2=F ITyADJ=14
 ICtDFT=  3500011 ScaDFX=  1.000000  1.000000  1.000000  1.000000
 FoFCou: FMM=F IPFlag=           0 FMFlag=      100000 FMFlg1=           0
         NFxFlg=           0 DoJE=T BraDBF=F KetDBF=T FulRan=T
         wScrn=  0.000000 ICntrl=       500 IOpCl=  0 I1Cent=   200000004 NGrid=           0
         NMat0=    1 NMatS0=      1 NMatT0=    0 NMatD0=    1 NMtDS0=    0 NMtDT0=    0
 Symmetry not used in FoFCou.
 SCF Done:  E(UHF) =  -112.909383560     A.U. after   14 cycles
            NFock= 14  Conv=0.54D-08     -V/T= 2.0070
 <Sx>= 0.0000 <Sy>= 0.0000 <Sz>= 0.5000 <S**2>= 0.7613 S= 0.5056
 <L.S>= 0.000000000000E+00
 Annihilation of the first spin contaminant:
 S**2 before annihilation     0.7613,   after     0.7501
 Calling FoFJK, ICntrl=      2127 FMM=F ISym2X=0 I1Cent= 0 IOpClX= 1 NMat=1 NMatS=1 NMatT=0.

 GradGradGradGradGradGradGradGradGradGradGradGradGradGradGradGradGradGrad
 Using GEDIIS/GDIIS optimizer.
 FormGI is forming the generalized inverse of G from B-inverse, IUseBI=4.
 Internal  Forces:  Max     0.014802027 RMS     0.006286109
 Step number   2 out of a maximum of   21
 All quantities printed in internal units (Hartrees-Bohrs-Radians)
 Mixed Optimization -- RFO/linear search
 Trust test= 6.43D-01 RLast= 5.01D-01 DXMaxT set to 5.05D-01
 ITU=  1  0
 Use linear search instead of GDIIS.
     Eigenvalues ---    0.01294   0.03735   0.14639   0.15999   0.20147
     Eigenvalues ---    0.37227   0.39505   0.40463   0.53426
 Quartic linear search produced a step of  0.01666.
 Iteration  1 RMS(Cart)=  0.08423012 RMS(Int)=  0.00697817
 Iteration  2 RMS(Cart)=  0.00532229 RMS(Int)=  0.00291506
 Iteration  3 RMS(Cart)=  0.00000736 RMS(Int)=  0.00291505
 Iteration  4 RMS(Cart)=  0.00000001 RMS(Int)=  0.00291505
 Variable       Old X    -DE/DX   Delta X   Delta X   Delta X     New X
                                 (Linear)    (Quad)   (Total)
    R1        2.66558  -0.00261  -0.00061  -0.00350  -0.00411   2.66148
    R2        1.87589   0.00018   0.00103  -0.00465  -0.00362   1.87227
    R3        2.07965  -0.00806   0.00096  -0.02657  -0.02561   2.05404
    R4        2.08087  -0.00760   0.00098  -0.02541  -0.02443   2.05645
    A1        1.78646   0.01480  -0.00207   0.10234   0.10027   1.88673
    A2        2.06348  -0.00378   0.00255  -0.00028  -0.00290   2.06058
    A3        2.00363   0.00356   0.00155   0.06020   0.05614   2.05978
    A4        1.99372   0.00311   0.00138   0.05157   0.04743   2.04114
    D1        0.63304   0.00094   0.00182  -0.01080  -0.00781   0.62524
    D2       -1.80292  -0.00434  -0.00387  -0.18356  -0.18860  -1.99152
    D3       -2.43980  -0.00544  -0.00575  -0.17532  -0.18253  -2.62233
         Item               Value     Threshold  Converged?
 Maximum Force            0.014802     0.000450     NO 
 RMS     Force            0.006286     0.000300     NO 
 Maximum Displacement     0.158780     0.001800     NO 
 RMS     Displacement     0.082452     0.001200     NO 
 GradGradGradGradGradGradGradGradGradGradGradGradGradGradGradGradGradGrad

                    Distance matrix (angstroms):
                    1          2          3          4          5
     1  O    0.000000
     2  C    1.408392   0.000000
     3  H    0.990765   1.957622   0.000000
     4  H    2.146013   1.086954   2.303065   0.000000
     5  H    2.146543   1.088225   2.740452   1.854138   0.000000
 Symmetry turned off by external request.
 Framework group  C1[X(CH3O)]
 Deg. of freedom     9
 Rotational constants (GHZ):         189.4023478          27.5303556          25.2481122
    13 basis functions,    39 primitive gaussians,    13 cartesian basis functions
     9 alpha electrons        8 beta electrons
       nuclear repulsion energy        34.4217708047 Hartrees.
 NAtoms=    5 NActive=    5 NUniq=    5 SFac= 1.00D+00 NAtFMM=   60 NAOKFM=F Big=F
 Initial guess from the checkpoint file:  "products.chk"
 B after Tr=     0.009967    0.062982   -0.013957
         Rot=    0.999987   -0.000417   -0.001797    0.004845 Ang=  -0.59 deg.
 Initial guess <Sx>= 0.0000 <Sy>= 0.0000 <Sz>= 0.5000 <S**2>= 0.7611 S= 0.5055
 ExpMin= 1.69D-01 ExpMax= 1.31D+02 ExpMxC= 1.31D+02 IAcc=2 IRadAn=         4 AccDes= 0.00D+00
 Harris functional with IExCor=  205 and IRadAn=       4 diagonalized for initial guess.
 HarFok:  IExCor=  205 AccDes= 0.00D+00 IRadAn=         4 IDoV= 1 UseB2=F ITyADJ=14
 ICtDFT=  3500011 ScaDFX=  1.000000  1.000000  1.000000  1.000000
 FoFCou: FMM=F IPFlag=           0 FMFlag=      100000 FMFlg1=           0
         NFxFlg=           0 DoJE=T BraDBF=F KetDBF=T FulRan=T
         wScrn=  0.000000 ICntrl=       500 IOpCl=  0 I1Cent=   200000004 NGrid=           0
         NMat0=    1 NMatS0=      1 NMatT0=    0 NMatD0=    1 NMtDS0=    0 NMtDT0=    0
 Symmetry not used in FoFCou.
 SCF Done:  E(UHF) =  -112.910840047     A.U. after   13 cycles
            NFock= 13  Conv=0.76D-08     -V/T= 2.0071
 <Sx>= 0.0000 <Sy>= 0.0000 <Sz>= 0.5000 <S**2>= 0.7622 S= 0.5061
 <L.S>= 0.000000000000E+00
 Annihilation of the first spin contaminant:
 S**2 before annihilation     0.7622,   after     0.7501
 Calling FoFJK, ICntrl=      2127 FMM=F ISym2X=0 I1Cent= 0 IOpClX= 1 NMat=1 NMatS=1 NMatT=0.

 GradGradGradGradGradGradGradGradGradGradGradGradGradGradGradGradGradGrad
 Using GEDIIS/GDIIS optimizer.
 FormGI is forming the generalized inverse of G from B-inverse, IUseBI=4.
 Internal  Forces:  Max     0.014181297 RMS     0.006022630
 Step number   3 out of a maximum of   21
 All quantities printed in internal units (Hartrees-Bohrs-Radians)
 Mixed Optimization -- RFO/linear search
 Trust test= 6.39D-01 RLast= 2.93D-01 DXMaxT set to 8.49D-01
 ITU=  1  1  0
 Use linear search instead of GDIIS.
     Eigenvalues ---    0.01123   0.03581   0.15086   0.16184   0.26355
     Eigenvalues ---    0.37217   0.37737   0.49464   0.53462
 Quartic linear search produced a step of -0.21272.
 Iteration  1 RMS(Cart)=  0.04415612 RMS(Int)=  0.00247065
 Iteration  2 RMS(Cart)=  0.00181627 RMS(Int)=  0.00052965
 Iteration  3 RMS(Cart)=  0.00000449 RMS(Int)=  0.00052963
 Iteration  4 RMS(Cart)=  0.00000000 RMS(Int)=  0.00052963
 Variable       Old X    -DE/DX   Delta X   Delta X   Delta X     New X
                                 (Linear)    (Quad)   (Total)
    R1        2.66148  -0.01251   0.00087  -0.02573  -0.02486   2.63662
    R2        1.87227   0.00007   0.00077  -0.00188  -0.00112   1.87116
    R3        2.05404   0.00217   0.00545  -0.00926  -0.00381   2.05023
    R4        2.05645   0.00035   0.00520  -0.01242  -0.00723   2.04922
    A1        1.88673  -0.01418  -0.02133  -0.01361  -0.03494   1.85179
    A2        2.06058   0.00285   0.00062   0.00172   0.00327   2.06385
    A3        2.05978  -0.00405  -0.01194   0.00038  -0.01059   2.04919
    A4        2.04114   0.00192  -0.01009   0.02612   0.01706   2.05820
    D1        0.62524  -0.00077   0.00166  -0.10601  -0.10466   0.52057
    D2       -1.99152  -0.00276   0.04012  -0.16984  -0.12940  -2.12092
    D3       -2.62233  -0.00018   0.03883  -0.05554  -0.01658  -2.63890
         Item               Value     Threshold  Converged?
 Maximum Force            0.014181     0.000450     NO 
 RMS     Force            0.006023     0.000300     NO 
 Maximum Displacement     0.066727     0.001800     NO 
 RMS     Displacement     0.044355     0.001200     NO 
 GradGradGradGradGradGradGradGradGradGradGradGradGradGradGradGradGradGrad

                    Distance matrix (angstroms):
                    1          2          3          4          5
     1  O    0.000000
     2  C    1.395238   0.000000
     3  H    0.990175   1.921813   0.000000
     4  H    2.134655   1.084936   2.237836   0.000000
     5  H    2.125001   1.084400   2.737522   1.858765   0.000000
 Symmetry turned off by external request.
 Framework group  C1[X(CH3O)]
 Deg. of freedom     9
 Rotational constants (GHZ):         188.3722104          28.2684285          25.6019628
    13 basis functions,    39 primitive gaussians,    13 cartesian basis functions
     9 alpha electrons        8 beta electrons
       nuclear repulsion energy        34.6769786879 Hartrees.
 NAtoms=    5 NActive=    5 NUniq=    5 SFac= 1.00D+00 NAtFMM=   60 NAOKFM=F Big=F
 Initial guess from the checkpoint file:  "products.chk"
 B after Tr=    -0.019295    0.030070    0.001578
         Rot=    0.999959    0.004505    0.004703    0.006319 Ang=   1.04 deg.
 Initial guess <Sx>= 0.0000 <Sy>= 0.0000 <Sz>= 0.5000 <S**2>= 0.7621 S= 0.5060
 ExpMin= 1.69D-01 ExpMax= 1.31D+02 ExpMxC= 1.31D+02 IAcc=2 IRadAn=         4 AccDes= 0.00D+00
 Harris functional with IExCor=  205 and IRadAn=       4 diagonalized for initial guess.
 HarFok:  IExCor=  205 AccDes= 0.00D+00 IRadAn=         4 IDoV= 1 UseB2=F ITyADJ=14
 ICtDFT=  3500011 ScaDFX=  1.000000  1.000000  1.000000  1.000000
 FoFCou: FMM=F IPFlag=           0 FMFlag=      100000 FMFlg1=           0
         NFxFlg=           0 DoJE=T BraDBF=F KetDBF=T FulRan=T
         wScrn=  0.000000 ICntrl=       500 IOpCl=  0 I1Cent=   200000004 NGrid=           0
         NMat0=    1 NMatS0=      1 NMatT0=    0 NMatD0=    1 NMtDS0=    0 NMtDT0=    0
 Symmetry not used in FoFCou.
 SCF Done:  E(UHF) =  -112.911762526     A.U. after   13 cycles
            NFock= 13  Conv=0.34D-08     -V/T= 2.0070
 <Sx>= 0.0000 <Sy>= 0.0000 <Sz>= 0.5000 <S**2>= 0.7616 S= 0.5058
 <L.S>= 0.000000000000E+00
 Annihilation of the first spin contaminant:
 S**2 before annihilation     0.7616,   after     0.7501
 Calling FoFJK, ICntrl=      2127 FMM=F ISym2X=0 I1Cent= 0 IOpClX= 1 NMat=1 NMatS=1 NMatT=0.

 GradGradGradGradGradGradGradGradGradGradGradGradGradGradGradGradGradGrad
 Using GEDIIS/GDIIS optimizer.
 FormGI is forming the generalized inverse of G from B-inverse, IUseBI=4.
 Internal  Forces:  Max     0.003045478 RMS     0.002198745
 Step number   4 out of a maximum of   21
 All quantities printed in internal units (Hartrees-Bohrs-Radians)
 Mixed Optimization -- RFO/linear search
 Trust test= 1.34D+00 RLast= 1.74D-01 DXMaxT set to 8.49D-01
 ITU=  1  1  1  0
 Use linear search instead of GDIIS.
     Eigenvalues ---    0.00400   0.03774   0.14865   0.16955   0.24976
     Eigenvalues ---    0.37240   0.42043   0.53247   0.67797
 Quartic linear search produced a step of  0.60278.
 Iteration  1 RMS(Cart)=  0.06766665 RMS(Int)=  0.07647637
 Iteration  2 RMS(Cart)=  0.06057102 RMS(Int)=  0.00531128
 Iteration  3 RMS(Cart)=  0.00451292 RMS(Int)=  0.00077635
 Iteration  4 RMS(Cart)=  0.00002090 RMS(Int)=  0.00077622
 Iteration  5 RMS(Cart)=  0.00000000 RMS(Int)=  0.00077622
 Variable       Old X    -DE/DX   Delta X   Delta X   Delta X     New X
                                 (Linear)    (Quad)   (Total)
    R1        2.63662   0.00273  -0.01498  -0.00399  -0.01897   2.61764
    R2        1.87116   0.00034  -0.00067  -0.00179  -0.00246   1.86870
    R3        2.05023   0.00300  -0.00230  -0.00027  -0.00257   2.04767
    R4        2.04922   0.00305  -0.00436  -0.00147  -0.00583   2.04339
    A1        1.85179  -0.00210  -0.02106   0.00331  -0.01775   1.83404
    A2        2.06385   0.00290   0.00197   0.02135   0.02215   2.08600
    A3        2.04919  -0.00221  -0.00638  -0.01077  -0.01859   2.03059
    A4        2.05820  -0.00016   0.01028   0.02121   0.03048   2.08869
    D1        0.52057  -0.00158  -0.06309  -0.26799  -0.33176   0.18882
    D2       -2.12092  -0.00262  -0.07800  -0.33977  -0.41710  -2.53802
    D3       -2.63890  -0.00047  -0.00999  -0.06297  -0.07407  -2.71297
         Item               Value     Threshold  Converged?
 Maximum Force            0.003045     0.000450     NO 
 RMS     Force            0.002199     0.000300     NO 
 Maximum Displacement     0.236588     0.001800     NO 
 RMS     Displacement     0.126023     0.001200     NO 
 GradGradGradGradGradGradGradGradGradGradGradGradGradGradGradGradGradGrad

                    Distance matrix (angstroms):
                    1          2          3          4          5
     1  O    0.000000
     2  C    1.385198   0.000000
     3  H    0.988872   1.899874   0.000000
     4  H    2.138226   1.083578   2.183784   0.000000
     5  H    2.101761   1.081317   2.806882   1.871758   0.000000
 Symmetry turned off by external request.
 Framework group  C1[X(CH3O)]
 Deg. of freedom     9
 Rotational constants (GHZ):         188.9297828          29.0728256          25.5916061
    13 basis functions,    39 primitive gaussians,    13 cartesian basis functions
     9 alpha electrons        8 beta electrons
       nuclear repulsion energy        34.8634755508 Hartrees.
 NAtoms=    5 NActive=    5 NUniq=    5 SFac= 1.00D+00 NAtFMM=   60 NAOKFM=F Big=F
 Initial guess from the checkpoint file:  "products.chk"
 B after Tr=    -0.030833    0.118579    0.007155
         Rot=    0.999538    0.020051    0.007777    0.021483 Ang=   3.48 deg.
 Initial guess <Sx>= 0.0000 <Sy>= 0.0000 <Sz>= 0.5000 <S**2>= 0.7615 S= 0.5058
 ExpMin= 1.69D-01 ExpMax= 1.31D+02 ExpMxC= 1.31D+02 IAcc=2 IRadAn=         4 AccDes= 0.00D+00
 Harris functional with IExCor=  205 and IRadAn=       4 diagonalized for initial guess.
 HarFok:  IExCor=  205 AccDes= 0.00D+00 IRadAn=         4 IDoV= 1 UseB2=F ITyADJ=14
 ICtDFT=  3500011 ScaDFX=  1.000000  1.000000  1.000000  1.000000
 FoFCou: FMM=F IPFlag=           0 FMFlag=      100000 FMFlg1=           0
         NFxFlg=           0 DoJE=T BraDBF=F KetDBF=T FulRan=T
         wScrn=  0.000000 ICntrl=       500 IOpCl=  0 I1Cent=   200000004 NGrid=           0
         NMat0=    1 NMatS0=      1 NMatT0=    0 NMatD0=    1 NMtDS0=    0 NMtDT0=    0
 Symmetry not used in FoFCou.
 SCF Done:  E(UHF) =  -112.913300270     A.U. after   15 cycles
            NFock= 15  Conv=0.43D-08     -V/T= 2.0070
 <Sx>= 0.0000 <Sy>= 0.0000 <Sz>= 0.5000 <S**2>= 0.7613 S= 0.5056
 <L.S>= 0.000000000000E+00
 Annihilation of the first spin contaminant:
 S**2 before annihilation     0.7613,   after     0.7501
 Calling FoFJK, ICntrl=      2127 FMM=F ISym2X=0 I1Cent= 0 IOpClX= 1 NMat=1 NMatS=1 NMatT=0.

 GradGradGradGradGradGradGradGradGradGradGradGradGradGradGradGradGradGrad
 Using GEDIIS/GDIIS optimizer.
 FormGI is forming the generalized inverse of G from B-inverse, IUseBI=4.
 Internal  Forces:  Max     0.011410351 RMS     0.004037394
 Step number   5 out of a maximum of   21
 All quantities printed in internal units (Hartrees-Bohrs-Radians)
 Mixed Optimization -- RFO/linear search
 Trust test= 1.45D+00 RLast= 5.40D-01 DXMaxT set to 1.43D+00
 ITU=  1  1  1  1  0
 Use linear search instead of GDIIS.
     Eigenvalues ---    0.00099   0.04067   0.15070   0.16693   0.25369
     Eigenvalues ---    0.37246   0.41999   0.53394   0.90653
 Quartic linear search produced a step of  0.88161.
 Iteration  1 RMS(Cart)=  0.06614663 RMS(Int)=  0.15460316
 Iteration  2 RMS(Cart)=  0.06674192 RMS(Int)=  0.06937869
 Iteration  3 RMS(Cart)=  0.05392142 RMS(Int)=  0.00461315
 Iteration  4 RMS(Cart)=  0.00400170 RMS(Int)=  0.00116119
 Iteration  5 RMS(Cart)=  0.00001714 RMS(Int)=  0.00116113
 Iteration  6 RMS(Cart)=  0.00000000 RMS(Int)=  0.00116113
 Variable       Old X    -DE/DX   Delta X   Delta X   Delta X     New X
                                 (Linear)    (Quad)   (Total)
    R1        2.61764   0.01141  -0.01673   0.01111  -0.00562   2.61203
    R2        1.86870   0.00032  -0.00217   0.00120  -0.00097   1.86772
    R3        2.04767   0.00177  -0.00226   0.00166  -0.00060   2.04706
    R4        2.04339   0.00317  -0.00514   0.00360  -0.00153   2.04186
    A1        1.83404   0.00427  -0.01565   0.00156  -0.01409   1.81996
    A2        2.08600   0.00183   0.01952   0.01367   0.03153   2.11753
    A3        2.03059  -0.00068  -0.01639  -0.01810  -0.03648   1.99412
    A4        2.08869  -0.00147   0.02687   0.00064   0.02613   2.11481
    D1        0.18882  -0.00282  -0.29248  -0.23446  -0.52821  -0.33940
    D2       -2.53802  -0.00165  -0.36772  -0.22482  -0.59126  -3.12927
    D3       -2.71297   0.00099  -0.06530   0.01427  -0.05274  -2.76571
         Item               Value     Threshold  Converged?
 Maximum Force            0.011410     0.000450     NO 
 RMS     Force            0.004037     0.000300     NO 
 Maximum Displacement     0.387031     0.001800     NO 
 RMS     Displacement     0.183252     0.001200     NO 
 GradGradGradGradGradGradGradGradGradGradGradGradGradGradGradGradGradGrad

                    Distance matrix (angstroms):
                    1          2          3          4          5
     1  O    0.000000
     2  C    1.382225   0.000000
     3  H    0.988356   1.887098   0.000000
     4  H    2.154274   1.083260   2.212343   0.000000
     5  H    2.074867   1.080506   2.838849   1.884824   0.000000
 Symmetry turned off by external request.
 Framework group  C1[X(CH3O)]
 Deg. of freedom     9
 Rotational constants (GHZ):         188.9432843          29.3837515          25.5660594
    13 basis functions,    39 primitive gaussians,    13 cartesian basis functions
     9 alpha electrons        8 beta electrons
       nuclear repulsion energy        34.9236734217 Hartrees.
 NAtoms=    5 NActive=    5 NUniq=    5 SFac= 1.00D+00 NAtFMM=   60 NAOKFM=F Big=F
 Initial guess from the checkpoint file:  "products.chk"
 B after Tr=     0.001547    0.182758    0.012224
         Rot=    0.998741    0.036641    0.002680    0.034153 Ang=   5.75 deg.
 Initial guess <Sx>= 0.0000 <Sy>= 0.0000 <Sz>= 0.5000 <S**2>= 0.7613 S= 0.5056
 ExpMin= 1.69D-01 ExpMax= 1.31D+02 ExpMxC= 1.31D+02 IAcc=2 IRadAn=         4 AccDes= 0.00D+00
 Harris functional with IExCor=  205 and IRadAn=       4 diagonalized for initial guess.
 HarFok:  IExCor=  205 AccDes= 0.00D+00 IRadAn=         4 IDoV= 1 UseB2=F ITyADJ=14
 ICtDFT=  3500011 ScaDFX=  1.000000  1.000000  1.000000  1.000000
 FoFCou: FMM=F IPFlag=           0 FMFlag=      100000 FMFlg1=           0
         NFxFlg=           0 DoJE=T BraDBF=F KetDBF=T FulRan=T
         wScrn=  0.000000 ICntrl=       500 IOpCl=  0 I1Cent=   200000004 NGrid=           0
         NMat0=    1 NMatS0=      1 NMatT0=    0 NMatD0=    1 NMtDS0=    0 NMtDT0=    0
 Symmetry not used in FoFCou.
 SCF Done:  E(UHF) =  -112.914525170     A.U. after   15 cycles
            NFock= 15  Conv=0.63D-08     -V/T= 2.0071
 <Sx>= 0.0000 <Sy>= 0.0000 <Sz>= 0.5000 <S**2>= 0.7614 S= 0.5057
 <L.S>= 0.000000000000E+00
 Annihilation of the first spin contaminant:
 S**2 before annihilation     0.7614,   after     0.7501
 Calling FoFJK, ICntrl=      2127 FMM=F ISym2X=0 I1Cent= 0 IOpClX= 1 NMat=1 NMatS=1 NMatT=0.

 GradGradGradGradGradGradGradGradGradGradGradGradGradGradGradGradGradGrad
 Using GEDIIS/GDIIS optimizer.
 FormGI is forming the generalized inverse of G from B-inverse, IUseBI=4.
 Internal  Forces:  Max     0.013115902 RMS     0.005127977
 Step number   6 out of a maximum of   21
 All quantities printed in internal units (Hartrees-Bohrs-Radians)
 Mixed Optimization -- RFO/linear search
 Trust test= 6.52D-01 RLast= 7.97D-01 DXMaxT set to 2.39D+00
 ITU=  1  1  1  1  1  0
 Use linear search instead of GDIIS.
     Eigenvalues ---    0.00381   0.03844   0.15848   0.16805   0.25567
     Eigenvalues ---    0.37244   0.40572   0.53399   0.74406
 Quartic linear search produced a step of -0.10009.
 Iteration  1 RMS(Cart)=  0.01494709 RMS(Int)=  0.00059983
 Iteration  2 RMS(Cart)=  0.00033813 RMS(Int)=  0.00037213
 Iteration  3 RMS(Cart)=  0.00000015 RMS(Int)=  0.00037213
 Variable       Old X    -DE/DX   Delta X   Delta X   Delta X     New X
                                 (Linear)    (Quad)   (Total)
    R1        2.61203   0.01312   0.00056   0.01468   0.01524   2.62727
    R2        1.86772   0.00128   0.00010   0.00562   0.00572   1.87344
    R3        2.04706   0.00095   0.00006   0.00833   0.00839   2.05546
    R4        2.04186   0.00242   0.00015   0.00997   0.01013   2.05199
    A1        1.81996   0.00749   0.00141   0.00051   0.00192   1.82188
    A2        2.11753  -0.00276  -0.00316  -0.00741  -0.01120   2.10633
    A3        1.99412   0.00443   0.00365   0.00508   0.00800   2.00212
    A4        2.11481  -0.00288  -0.00262  -0.01703  -0.02024   2.09458
    D1       -0.33940  -0.00236   0.05287  -0.09841  -0.04573  -0.38512
    D2       -3.12927   0.00174   0.05918  -0.03733   0.02204  -3.10724
    D3       -2.76571   0.00294   0.00528   0.06072   0.06558  -2.70013
         Item               Value     Threshold  Converged?
 Maximum Force            0.013116     0.000450     NO 
 RMS     Force            0.005128     0.000300     NO 
 Maximum Displacement     0.032515     0.001800     NO 
 RMS     Displacement     0.014969     0.001200     NO 
 GradGradGradGradGradGradGradGradGradGradGradGradGradGradGradGradGradGrad

                    Distance matrix (angstroms):
                    1          2          3          4          5
     1  O    0.000000
     2  C    1.390291   0.000000
     3  H    0.991383   1.897535   0.000000
     4  H    2.158559   1.087701   2.221615   0.000000
     5  H    2.091486   1.085865   2.856408   1.882464   0.000000
 Symmetry turned off by external request.
 Framework group  C1[X(CH3O)]
 Deg. of freedom     9
 Rotational constants (GHZ):         187.7222274          29.0167737          25.3159633
    13 basis functions,    39 primitive gaussians,    13 cartesian basis functions
     9 alpha electrons        8 beta electrons
       nuclear repulsion energy        34.7463505058 Hartrees.
 NAtoms=    5 NActive=    5 NUniq=    5 SFac= 1.00D+00 NAtFMM=   60 NAOKFM=F Big=F
 Initial guess from the checkpoint file:  "products.chk"
 B after Tr=    -0.002733   -0.005653    0.007917
         Rot=    0.999990    0.003739   -0.001471    0.001868 Ang=   0.51 deg.
 Initial guess <Sx>= 0.0000 <Sy>= 0.0000 <Sz>= 0.5000 <S**2>= 0.7615 S= 0.5057
 ExpMin= 1.69D-01 ExpMax= 1.31D+02 ExpMxC= 1.31D+02 IAcc=2 IRadAn=         4 AccDes= 0.00D+00
 Harris functional with IExCor=  205 and IRadAn=       4 diagonalized for initial guess.
 HarFok:  IExCor=  205 AccDes= 0.00D+00 IRadAn=         4 IDoV= 1 UseB2=F ITyADJ=14
 ICtDFT=  3500011 ScaDFX=  1.000000  1.000000  1.000000  1.000000
 FoFCou: FMM=F IPFlag=           0 FMFlag=      100000 FMFlg1=           0
         NFxFlg=           0 DoJE=T BraDBF=F KetDBF=T FulRan=T
         wScrn=  0.000000 ICntrl=       500 IOpCl=  0 I1Cent=   200000004 NGrid=           0
         NMat0=    1 NMatS0=      1 NMatT0=    0 NMatD0=    1 NMtDS0=    0 NMtDT0=    0
 Symmetry not used in FoFCou.
 SCF Done:  E(UHF) =  -112.915102852     A.U. after   12 cycles
            NFock= 12  Conv=0.99D-08     -V/T= 2.0072
 <Sx>= 0.0000 <Sy>= 0.0000 <Sz>= 0.5000 <S**2>= 0.7612 S= 0.5056
 <L.S>= 0.000000000000E+00
 Annihilation of the first spin contaminant:
 S**2 before annihilation     0.7612,   after     0.7501
 Calling FoFJK, ICntrl=      2127 FMM=F ISym2X=0 I1Cent= 0 IOpClX= 1 NMat=1 NMatS=1 NMatT=0.

 GradGradGradGradGradGradGradGradGradGradGradGradGradGradGradGradGradGrad
 Using GEDIIS/GDIIS optimizer.
 FormGI is forming the generalized inverse of G from B-inverse, IUseBI=4.
 Internal  Forces:  Max     0.004998510 RMS     0.002725872
 Step number   7 out of a maximum of   21
 All quantities printed in internal units (Hartrees-Bohrs-Radians)
 Mixed Optimization -- RFO/linear search
 Trust test= 1.60D+00 RLast= 8.90D-02 DXMaxT set to 2.39D+00
 ITU=  1  1  1  1  1  1  0
 Use linear search instead of GDIIS.
     Eigenvalues ---    0.00359   0.01427   0.15567   0.16601   0.24855
     Eigenvalues ---    0.37246   0.44867   0.52657   0.82490
 Quartic linear search produced a step of  1.45155.
 Iteration  1 RMS(Cart)=  0.04556766 RMS(Int)=  0.02291398
 Iteration  2 RMS(Cart)=  0.01264883 RMS(Int)=  0.00574470
 Iteration  3 RMS(Cart)=  0.00028557 RMS(Int)=  0.00573778
 Iteration  4 RMS(Cart)=  0.00000072 RMS(Int)=  0.00573778
 Variable       Old X    -DE/DX   Delta X   Delta X   Delta X     New X
                                 (Linear)    (Quad)   (Total)
    R1        2.62727   0.00422   0.02213   0.00222   0.02434   2.65161
    R2        1.87344  -0.00223   0.00830  -0.00250   0.00580   1.87925
    R3        2.05546  -0.00206   0.01218  -0.00080   0.01138   2.06684
    R4        2.05199  -0.00191   0.01470  -0.00283   0.01187   2.06386
    A1        1.82188   0.00500   0.00279   0.00595   0.00874   1.83062
    A2        2.10633  -0.00190  -0.01626  -0.01450  -0.04009   2.06624
    A3        2.00212   0.00172   0.01161  -0.01374  -0.01407   1.98804
    A4        2.09458  -0.00123  -0.02937  -0.02575  -0.06440   2.03018
    D1       -0.38512  -0.00229  -0.06638  -0.18771  -0.25451  -0.63963
    D2       -3.10724   0.00146   0.03199  -0.04778  -0.01537  -3.12261
    D3       -2.70013   0.00326   0.09520   0.14425   0.23268  -2.46744
         Item               Value     Threshold  Converged?
 Maximum Force            0.004999     0.000450     NO 
 RMS     Force            0.002726     0.000300     NO 
 Maximum Displacement     0.109684     0.001800     NO 
 RMS     Displacement     0.056186     0.001200     NO 
 GradGradGradGradGradGradGradGradGradGradGradGradGradGradGradGradGradGrad

                    Distance matrix (angstroms):
                    1          2          3          4          5
     1  O    0.000000
     2  C    1.403172   0.000000
     3  H    0.994454   1.916978   0.000000
     4  H    2.150435   1.093724   2.260991   0.000000
     5  H    2.098507   1.092148   2.873085   1.856960   0.000000
 Symmetry turned off by external request.
 Framework group  C1[X(CH3O)]
 Deg. of freedom     9
 Rotational constants (GHZ):         185.1635129          28.4425120          25.1305195
    13 basis functions,    39 primitive gaussians,    13 cartesian basis functions
     9 alpha electrons        8 beta electrons
       nuclear repulsion energy        34.5148558353 Hartrees.
 NAtoms=    5 NActive=    5 NUniq=    5 SFac= 1.00D+00 NAtFMM=   60 NAOKFM=F Big=F
 Initial guess from the checkpoint file:  "products.chk"
 B after Tr=     0.002470    0.004094    0.014816
         Rot=    0.999724    0.019731   -0.004079    0.012106 Ang=   2.69 deg.
 Initial guess <Sx>= 0.0000 <Sy>= 0.0000 <Sz>= 0.5000 <S**2>= 0.7613 S= 0.5056
 ExpMin= 1.69D-01 ExpMax= 1.31D+02 ExpMxC= 1.31D+02 IAcc=2 IRadAn=         4 AccDes= 0.00D+00
 Harris functional with IExCor=  205 and IRadAn=       4 diagonalized for initial guess.
 HarFok:  IExCor=  205 AccDes= 0.00D+00 IRadAn=         4 IDoV= 1 UseB2=F ITyADJ=14
 ICtDFT=  3500011 ScaDFX=  1.000000  1.000000  1.000000  1.000000
 FoFCou: FMM=F IPFlag=           0 FMFlag=      100000 FMFlg1=           0
         NFxFlg=           0 DoJE=T BraDBF=F KetDBF=T FulRan=T
         wScrn=  0.000000 ICntrl=       500 IOpCl=  0 I1Cent=   200000004 NGrid=           0
         NMat0=    1 NMatS0=      1 NMatT0=    0 NMatD0=    1 NMtDS0=    0 NMtDT0=    0
 Symmetry not used in FoFCou.
 SCF Done:  E(UHF) =  -112.915944507     A.U. after   14 cycles
            NFock= 14  Conv=0.29D-08     -V/T= 2.0073
 <Sx>= 0.0000 <Sy>= 0.0000 <Sz>= 0.5000 <S**2>= 0.7594 S= 0.5047
 <L.S>= 0.000000000000E+00
 Annihilation of the first spin contaminant:
 S**2 before annihilation     0.7594,   after     0.7501
 Calling FoFJK, ICntrl=      2127 FMM=F ISym2X=0 I1Cent= 0 IOpClX= 1 NMat=1 NMatS=1 NMatT=0.

 GradGradGradGradGradGradGradGradGradGradGradGradGradGradGradGradGradGrad
 Using GEDIIS/GDIIS optimizer.
 FormGI is forming the generalized inverse of G from B-inverse, IUseBI=4.
 Internal  Forces:  Max     0.008908677 RMS     0.003724919
 Step number   8 out of a maximum of   21
 All quantities printed in internal units (Hartrees-Bohrs-Radians)
 Mixed Optimization -- RFO/linear search
 Trust test= 1.02D+00 RLast= 3.55D-01 DXMaxT set to 2.39D+00
 ITU=  1  1  1  1  1  1  1  0
 Use linear search instead of GDIIS.
     Eigenvalues ---    0.00383   0.01583   0.15278   0.16550   0.24374
     Eigenvalues ---    0.37254   0.44111   0.52383   1.02940
 Quartic linear search produced a step of -0.06850.
 Iteration  1 RMS(Cart)=  0.00618283 RMS(Int)=  0.00036482
 Iteration  2 RMS(Cart)=  0.00003350 RMS(Int)=  0.00036262
 Iteration  3 RMS(Cart)=  0.00000000 RMS(Int)=  0.00036262
 Variable       Old X    -DE/DX   Delta X   Delta X   Delta X     New X
                                 (Linear)    (Quad)   (Total)
    R1        2.65161  -0.00891  -0.00167  -0.00639  -0.00805   2.64356
    R2        1.87925  -0.00538  -0.00040  -0.00518  -0.00558   1.87367
    R3        2.06684  -0.00362  -0.00078  -0.00335  -0.00413   2.06271
    R4        2.06386  -0.00473  -0.00081  -0.00418  -0.00499   2.05887
    A1        1.83062  -0.00049  -0.00060   0.00470   0.00410   1.83472
    A2        2.06624  -0.00023   0.00275  -0.00525  -0.00191   2.06433
    A3        1.98804  -0.00194   0.00096  -0.00682  -0.00510   1.98294
    A4        2.03018   0.00187   0.00441   0.00028   0.00529   2.03547
    D1       -0.63963   0.00010   0.01743  -0.03034  -0.01290  -0.65253
    D2       -3.12261  -0.00016   0.00105  -0.01345  -0.01240  -3.13501
    D3       -2.46744   0.00116  -0.01594   0.01996   0.00443  -2.46301
         Item               Value     Threshold  Converged?
 Maximum Force            0.008909     0.000450     NO 
 RMS     Force            0.003725     0.000300     NO 
 Maximum Displacement     0.010845     0.001800     NO 
 RMS     Displacement     0.006191     0.001200     NO 
 GradGradGradGradGradGradGradGradGradGradGradGradGradGradGradGradGradGrad

                    Distance matrix (angstroms):
                    1          2          3          4          5
     1  O    0.000000
     2  C    1.398910   0.000000
     3  H    0.991502   1.914077   0.000000
     4  H    2.143638   1.091540   2.259930   0.000000
     5  H    2.089263   1.089506   2.865052   1.855897   0.000000
 Symmetry turned off by external request.
 Framework group  C1[X(CH3O)]
 Deg. of freedom     9
 Rotational constants (GHZ):         185.8172160          28.6186140          25.2889670
    13 basis functions,    39 primitive gaussians,    13 cartesian basis functions
     9 alpha electrons        8 beta electrons
       nuclear repulsion energy        34.6140081133 Hartrees.
 NAtoms=    5 NActive=    5 NUniq=    5 SFac= 1.00D+00 NAtFMM=   60 NAOKFM=F Big=F
 Initial guess from the checkpoint file:  "products.chk"
 B after Tr=     0.002782    0.002309   -0.003513
         Rot=    0.999999    0.000849   -0.000104    0.000727 Ang=   0.13 deg.
 Initial guess <Sx>= 0.0000 <Sy>= 0.0000 <Sz>= 0.5000 <S**2>= 0.7593 S= 0.5046
 SCF Done:  E(UHF) =  -112.916065772     A.U. after   12 cycles
            NFock= 12  Conv=0.41D-08     -V/T= 2.0072
 <Sx>= 0.0000 <Sy>= 0.0000 <Sz>= 0.5000 <S**2>= 0.7592 S= 0.5046
 <L.S>= 0.000000000000E+00
 Annihilation of the first spin contaminant:
 S**2 before annihilation     0.7592,   after     0.7501
 Calling FoFJK, ICntrl=      2127 FMM=F ISym2X=0 I1Cent= 0 IOpClX= 1 NMat=1 NMatS=1 NMatT=0.

 GradGradGradGradGradGradGradGradGradGradGradGradGradGradGradGradGradGrad
 Using GEDIIS/GDIIS optimizer.
 FormGI is forming the generalized inverse of G from B-inverse, IUseBI=4.
 Internal  Forces:  Max     0.004861281 RMS     0.001906174
 Step number   9 out of a maximum of   21
 All quantities printed in internal units (Hartrees-Bohrs-Radians)
 Mixed Optimization -- RFO/linear search
 Trust test= 1.49D+00 RLast= 2.35D-02 DXMaxT set to 2.39D+00
 ITU=  1  1  1  1  1  1  1  1  0
 Use linear search instead of GDIIS.
     Eigenvalues ---    0.00394   0.01447   0.14378   0.16697   0.24666
     Eigenvalues ---    0.37252   0.41218   0.54089   0.59282
 Quartic linear search produced a step of  0.88705.
 Iteration  1 RMS(Cart)=  0.01367970 RMS(Int)=  0.00021319
 Iteration  2 RMS(Cart)=  0.00017588 RMS(Int)=  0.00002723
 Iteration  3 RMS(Cart)=  0.00000002 RMS(Int)=  0.00002723
 Variable       Old X    -DE/DX   Delta X   Delta X   Delta X     New X
                                 (Linear)    (Quad)   (Total)
    R1        2.64356  -0.00486  -0.00714  -0.00140  -0.00855   2.63501
    R2        1.87367  -0.00206  -0.00495   0.00081  -0.00413   1.86953
    R3        2.06271  -0.00169  -0.00366  -0.00034  -0.00400   2.05871
    R4        2.05887  -0.00237  -0.00443  -0.00083  -0.00526   2.05361
    A1        1.83472  -0.00086   0.00364  -0.00149   0.00215   1.83687
    A2        2.06433   0.00012  -0.00169  -0.00011  -0.00184   2.06249
    A3        1.98294  -0.00122  -0.00453  -0.00492  -0.00948   1.97346
    A4        2.03547   0.00090   0.00469  -0.00320   0.00144   2.03692
    D1       -0.65253   0.00010  -0.01144   0.03774   0.02634  -0.62619
    D2       -3.13501   0.00006  -0.01100   0.05078   0.03974  -3.09527
    D3       -2.46301   0.00075   0.00393   0.01402   0.01797  -2.44505
         Item               Value     Threshold  Converged?
 Maximum Force            0.004861     0.000450     NO 
 RMS     Force            0.001906     0.000300     NO 
 Maximum Displacement     0.022886     0.001800     NO 
 RMS     Displacement     0.013703     0.001200     NO 
 GradGradGradGradGradGradGradGradGradGradGradGradGradGradGradGradGradGrad

                    Distance matrix (angstroms):
                    1          2          3          4          5
     1  O    0.000000
     2  C    1.394388   0.000000
     3  H    0.989314   1.910108   0.000000
     4  H    2.136714   1.089423   2.247632   0.000000
     5  H    2.076753   1.086724   2.853988   1.852555   0.000000
 Symmetry turned off by external request.
 Framework group  C1[X(CH3O)]
 Deg. of freedom     9
 Rotational constants (GHZ):         186.0616120          28.8434813          25.4587840
    13 basis functions,    39 primitive gaussians,    13 cartesian basis functions
     9 alpha electrons        8 beta electrons
       nuclear repulsion energy        34.7200110304 Hartrees.
 NAtoms=    5 NActive=    5 NUniq=    5 SFac= 1.00D+00 NAtFMM=   60 NAOKFM=F Big=F
 Initial guess from the checkpoint file:  "products.chk"
 B after Tr=    -0.001685   -0.012807   -0.004788
         Rot=    0.999996   -0.001421    0.000673   -0.002224 Ang=  -0.31 deg.
 Initial guess <Sx>= 0.0000 <Sy>= 0.0000 <Sz>= 0.5000 <S**2>= 0.7591 S= 0.5045
 ExpMin= 1.69D-01 ExpMax= 1.31D+02 ExpMxC= 1.31D+02 IAcc=2 IRadAn=         4 AccDes= 0.00D+00
 Harris functional with IExCor=  205 and IRadAn=       4 diagonalized for initial guess.
 HarFok:  IExCor=  205 AccDes= 0.00D+00 IRadAn=         4 IDoV= 1 UseB2=F ITyADJ=14
 ICtDFT=  3500011 ScaDFX=  1.000000  1.000000  1.000000  1.000000
 FoFCou: FMM=F IPFlag=           0 FMFlag=      100000 FMFlg1=           0
         NFxFlg=           0 DoJE=T BraDBF=F KetDBF=T FulRan=T
         wScrn=  0.000000 ICntrl=       500 IOpCl=  0 I1Cent=   200000004 NGrid=           0
         NMat0=    1 NMatS0=      1 NMatT0=    0 NMatD0=    1 NMtDS0=    0 NMtDT0=    0
 Symmetry not used in FoFCou.
 SCF Done:  E(UHF) =  -112.916106189     A.U. after   12 cycles
            NFock= 12  Conv=0.58D-08     -V/T= 2.0071
 <Sx>= 0.0000 <Sy>= 0.0000 <Sz>= 0.5000 <S**2>= 0.7588 S= 0.5044
 <L.S>= 0.000000000000E+00
 Annihilation of the first spin contaminant:
 S**2 before annihilation     0.7588,   after     0.7501
 Calling FoFJK, ICntrl=      2127 FMM=F ISym2X=0 I1Cent= 0 IOpClX= 1 NMat=1 NMatS=1 NMatT=0.

 GradGradGradGradGradGradGradGradGradGradGradGradGradGradGradGradGradGrad
 Using GEDIIS/GDIIS optimizer.
 FormGI is forming the generalized inverse of G from B-inverse, IUseBI=4.
 Internal  Forces:  Max     0.000346047 RMS     0.000216790
 Step number  10 out of a maximum of   21
 All quantities printed in internal units (Hartrees-Bohrs-Radians)
 Mixed Optimization -- En-DIIS/RFO-DIIS
 Trust test= 8.32D-01 RLast= 5.32D-02 DXMaxT set to 2.39D+00
 ITU=  1  1  1  1  1  1  1  1  1  0
 Use linear search instead of GDIIS.
     Eigenvalues ---    0.00412   0.01688   0.14070   0.16722   0.24689
     Eigenvalues ---    0.37246   0.42015   0.54583   0.55617
 Quartic linear search produced a step of -0.15516.
 Iteration  1 RMS(Cart)=  0.01173006 RMS(Int)=  0.00019877
 Iteration  2 RMS(Cart)=  0.00017256 RMS(Int)=  0.00000375
 Iteration  3 RMS(Cart)=  0.00000003 RMS(Int)=  0.00000375
 Variable       Old X    -DE/DX   Delta X   Delta X   Delta X     New X
                                 (Linear)    (Quad)   (Total)
    R1        2.63501  -0.00021   0.00133  -0.00244  -0.00112   2.63390
    R2        1.86953   0.00035   0.00064   0.00003   0.00067   1.87021
    R3        2.05871   0.00021   0.00062  -0.00040   0.00022   2.05893
    R4        2.05361   0.00034   0.00082  -0.00036   0.00046   2.05407
    A1        1.83687  -0.00025  -0.00033  -0.00073  -0.00106   1.83581
    A2        2.06249   0.00011   0.00028   0.00120   0.00148   2.06397
    A3        1.97346  -0.00003   0.00147  -0.00154  -0.00007   1.97339
    A4        2.03692   0.00006  -0.00022   0.00273   0.00251   2.03942
    D1       -0.62619  -0.00006  -0.00409  -0.02731  -0.03140  -0.65759
    D2       -3.09527  -0.00027  -0.00617  -0.03161  -0.03777  -3.13304
    D3       -2.44505  -0.00018  -0.00279  -0.00282  -0.00562  -2.45067
         Item               Value     Threshold  Converged?
 Maximum Force            0.000346     0.000450     YES
 RMS     Force            0.000217     0.000300     YES
 Maximum Displacement     0.021959     0.001800     NO 
 RMS     Displacement     0.011742     0.001200     NO 
 GradGradGradGradGradGradGradGradGradGradGradGradGradGradGradGradGradGrad

                    Distance matrix (angstroms):
                    1          2          3          4          5
     1  O    0.000000
     2  C    1.393797   0.000000
     3  H    0.989670   1.909110   0.000000
     4  H    2.137209   1.089540   2.255247   0.000000
     5  H    2.076378   1.086965   2.853848   1.854288   0.000000
 Symmetry turned off by external request.
 Framework group  C1[X(CH3O)]
 Deg. of freedom     9
 Rotational constants (GHZ):         186.0604384          28.8474937          25.4798371
    13 basis functions,    39 primitive gaussians,    13 cartesian basis functions
     9 alpha electrons        8 beta electrons
       nuclear repulsion energy        34.7249568595 Hartrees.
 NAtoms=    5 NActive=    5 NUniq=    5 SFac= 1.00D+00 NAtFMM=   60 NAOKFM=F Big=F
 Initial guess from the checkpoint file:  "products.chk"
 B after Tr=     0.002941    0.011016    0.000810
         Rot=    0.999996    0.001978   -0.000248    0.002080 Ang=   0.33 deg.
 Initial guess <Sx>= 0.0000 <Sy>= 0.0000 <Sz>= 0.5000 <S**2>= 0.7588 S= 0.5044
 ExpMin= 1.69D-01 ExpMax= 1.31D+02 ExpMxC= 1.31D+02 IAcc=2 IRadAn=         4 AccDes= 0.00D+00
 Harris functional with IExCor=  205 and IRadAn=       4 diagonalized for initial guess.
 HarFok:  IExCor=  205 AccDes= 0.00D+00 IRadAn=         4 IDoV= 1 UseB2=F ITyADJ=14
 ICtDFT=  3500011 ScaDFX=  1.000000  1.000000  1.000000  1.000000
 FoFCou: FMM=F IPFlag=           0 FMFlag=      100000 FMFlg1=           0
         NFxFlg=           0 DoJE=T BraDBF=F KetDBF=T FulRan=T
         wScrn=  0.000000 ICntrl=       500 IOpCl=  0 I1Cent=   200000004 NGrid=           0
         NMat0=    1 NMatS0=      1 NMatT0=    0 NMatD0=    1 NMtDS0=    0 NMtDT0=    0
 Symmetry not used in FoFCou.
 SCF Done:  E(UHF) =  -112.916109485     A.U. after   12 cycles
            NFock= 12  Conv=0.24D-08     -V/T= 2.0071
 <Sx>= 0.0000 <Sy>= 0.0000 <Sz>= 0.5000 <S**2>= 0.7589 S= 0.5044
 <L.S>= 0.000000000000E+00
 Annihilation of the first spin contaminant:
 S**2 before annihilation     0.7589,   after     0.7501
 Calling FoFJK, ICntrl=      2127 FMM=F ISym2X=0 I1Cent= 0 IOpClX= 1 NMat=1 NMatS=1 NMatT=0.

 GradGradGradGradGradGradGradGradGradGradGradGradGradGradGradGradGradGrad
 Using GEDIIS/GDIIS optimizer.
 FormGI is forming the generalized inverse of G from B-inverse, IUseBI=4.
 Internal  Forces:  Max     0.000494572 RMS     0.000179272
 Step number  11 out of a maximum of   21
 All quantities printed in internal units (Hartrees-Bohrs-Radians)
 Mixed Optimization -- En-DIIS/RFO-DIIS
 Swapping is turned off.
 Trust test= 4.42D-01 RLast= 4.96D-02 DXMaxT set to 2.39D+00
 ITU=  0  1  1  1  1  1  1  1  1  1  0
     Eigenvalues ---    0.00591   0.01846   0.14807   0.16804   0.25013
     Eigenvalues ---    0.37354   0.42327   0.54700   0.57219
 En-DIIS/RFO-DIIS/Sim-DIIS IScMMF=       -3 using points:    11   10
 RFO step:  Lambda=-3.36035944D-06.
 DidBck=T Rises=F RFO-DIIS coefs:    0.63377    0.36623
 Iteration  1 RMS(Cart)=  0.00429933 RMS(Int)=  0.00002734
 Iteration  2 RMS(Cart)=  0.00002400 RMS(Int)=  0.00000142
 Iteration  3 RMS(Cart)=  0.00000000 RMS(Int)=  0.00000142
 Variable       Old X    -DE/DX   Delta X   Delta X   Delta X     New X
                                 (Linear)    (Quad)   (Total)
    R1        2.63390   0.00049   0.00041   0.00047   0.00088   2.63477
    R2        1.87021   0.00000  -0.00025   0.00020  -0.00005   1.87016
    R3        2.05893   0.00011  -0.00008   0.00025   0.00017   2.05910
    R4        2.05407   0.00007  -0.00017   0.00029   0.00012   2.05419
    A1        1.83581  -0.00000   0.00039  -0.00051  -0.00013   1.83568
    A2        2.06397  -0.00008  -0.00054   0.00018  -0.00036   2.06362
    A3        1.97339   0.00019   0.00003   0.00101   0.00103   1.97443
    A4        2.03942  -0.00015  -0.00092  -0.00004  -0.00095   2.03847
    D1       -0.65759   0.00004   0.01150   0.00105   0.01255  -0.64504
    D2       -3.13304   0.00016   0.01383  -0.00056   0.01328  -3.11977
    D3       -2.45067  -0.00001   0.00206  -0.00206  -0.00000  -2.45067
         Item               Value     Threshold  Converged?
 Maximum Force            0.000495     0.000450     NO 
 RMS     Force            0.000179     0.000300     YES
 Maximum Displacement     0.007910     0.001800     NO 
 RMS     Displacement     0.004297     0.001200     NO 
 GradGradGradGradGradGradGradGradGradGradGradGradGradGradGradGradGradGrad

                    Distance matrix (angstroms):
                    1          2          3          4          5
     1  O    0.000000
     2  C    1.394262   0.000000
     3  H    0.989644   1.909406   0.000000
     4  H    2.137474   1.089629   2.252212   0.000000
     5  H    2.077530   1.087029   2.854542   1.853876   0.000000
 Symmetry turned off by external request.
 Framework group  C1[X(CH3O)]
 Deg. of freedom     9
 Rotational constants (GHZ):         186.0526919          28.8348516          25.4609058
    13 basis functions,    39 primitive gaussians,    13 cartesian basis functions
     9 alpha electrons        8 beta electrons
       nuclear repulsion energy        34.7172833173 Hartrees.
 NAtoms=    5 NActive=    5 NUniq=    5 SFac= 1.00D+00 NAtFMM=   60 NAOKFM=F Big=F
 Initial guess from the checkpoint file:  "products.chk"
 B after Tr=    -0.001241   -0.003691    0.000057
         Rot=    0.999999   -0.000809    0.000077   -0.000764 Ang=  -0.13 deg.
 Initial guess <Sx>= 0.0000 <Sy>= 0.0000 <Sz>= 0.5000 <S**2>= 0.7589 S= 0.5044
 SCF Done:  E(UHF) =  -112.916111140     A.U. after   11 cycles
            NFock= 11  Conv=0.44D-08     -V/T= 2.0071
 <Sx>= 0.0000 <Sy>= 0.0000 <Sz>= 0.5000 <S**2>= 0.7589 S= 0.5044
 <L.S>= 0.000000000000E+00
 Annihilation of the first spin contaminant:
 S**2 before annihilation     0.7589,   after     0.7501
 Calling FoFJK, ICntrl=      2127 FMM=F ISym2X=0 I1Cent= 0 IOpClX= 1 NMat=1 NMatS=1 NMatT=0.

 GradGradGradGradGradGradGradGradGradGradGradGradGradGradGradGradGradGrad
 Using GEDIIS/GDIIS optimizer.
 FormGI is forming the generalized inverse of G from B-inverse, IUseBI=4.
 Internal  Forces:  Max     0.000016347 RMS     0.000010703
 Step number  12 out of a maximum of   21
 All quantities printed in internal units (Hartrees-Bohrs-Radians)
 Mixed Optimization -- En-DIIS/RFO-DIIS
 Swapping is turned off.
 Trust test= 9.85D-01 RLast= 1.84D-02 DXMaxT set to 2.39D+00
 ITU=  1  0  1  1  1  1  1  1  1  1  1  0
     Eigenvalues ---    0.00633   0.01798   0.14686   0.16839   0.24903
     Eigenvalues ---    0.37333   0.42119   0.55021   0.57495
 En-DIIS/RFO-DIIS/Sim-DIIS IScMMF=       -3 using points:    12   11   10
 RFO step:  Lambda=-3.11698689D-08.
 DidBck=T Rises=F RFO-DIIS coefs:    0.61447    0.25579    0.12974
 Iteration  1 RMS(Cart)=  0.00020049 RMS(Int)=  0.00000036
 Iteration  2 RMS(Cart)=  0.00000008 RMS(Int)=  0.00000035
 Variable       Old X    -DE/DX   Delta X   Delta X   Delta X     New X
                                 (Linear)    (Quad)   (Total)
    R1        2.63477  -0.00001  -0.00019   0.00022   0.00002   2.63480
    R2        1.87016   0.00001  -0.00007   0.00009   0.00002   1.87018
    R3        2.05910   0.00001  -0.00009   0.00015   0.00005   2.05915
    R4        2.05419   0.00001  -0.00011   0.00015   0.00004   2.05423
    A1        1.83568  -0.00002   0.00019  -0.00023  -0.00004   1.83564
    A2        2.06362   0.00000  -0.00005  -0.00008  -0.00013   2.06348
    A3        1.97443  -0.00000  -0.00039   0.00025  -0.00014   1.97428
    A4        2.03847  -0.00001   0.00004  -0.00027  -0.00023   2.03824
    D1       -0.64504  -0.00001  -0.00077  -0.00016  -0.00092  -0.64596
    D2       -3.11977   0.00001  -0.00022   0.00009  -0.00013  -3.11990
    D3       -2.45067   0.00002   0.00073   0.00006   0.00079  -2.44988
         Item               Value     Threshold  Converged?
 Maximum Force            0.000016     0.000450     YES
 RMS     Force            0.000011     0.000300     YES
 Maximum Displacement     0.000375     0.001800     YES
 RMS     Displacement     0.000201     0.001200     YES
 Optimization completed.
    -- Stationary point found.
                           ----------------------------
                           !   Optimized Parameters   !
                           ! (Angstroms and Degrees)  !
 --------------------------                            --------------------------
 ! Name  Definition              Value          Derivative Info.                !
 --------------------------------------------------------------------------------
 ! R1    R(1,2)                  1.3943         -DE/DX =    0.0                 !
 ! R2    R(1,3)                  0.9896         -DE/DX =    0.0                 !
 ! R3    R(2,4)                  1.0896         -DE/DX =    0.0                 !
 ! R4    R(2,5)                  1.087          -DE/DX =    0.0                 !
 ! A1    A(2,1,3)              105.1767         -DE/DX =    0.0                 !
 ! A2    A(1,2,4)              118.2367         -DE/DX =    0.0                 !
 ! A3    A(1,2,5)              113.1262         -DE/DX =    0.0                 !
 ! A4    A(4,2,5)              116.7957         -DE/DX =    0.0                 !
 ! D1    D(3,1,2,4)            -36.958          -DE/DX =    0.0                 !
 ! D2    D(3,1,2,5)           -178.7494         -DE/DX =    0.0                 !
 ! D3    D(1,2,4,5)           -140.4129         -DE/DX =    0.0                 !
 --------------------------------------------------------------------------------
 GradGradGradGradGradGradGradGradGradGradGradGradGradGradGradGradGradGrad

                    Distance matrix (angstroms):
                    1          2          3          4          5
     1  O    0.000000
     2  C    1.394262   0.000000
     3  H    0.989644   1.909406   0.000000
     4  H    2.137474   1.089629   2.252212   0.000000
     5  H    2.077530   1.087029   2.854542   1.853876   0.000000
 Symmetry turned off by external request.
 Framework group  C1[X(CH3O)]
 Deg. of freedom     9
 Rotational constants (GHZ):         186.0526919          28.8348516          25.4609058

 **********************************************************************

            Population analysis using the SCF density.

 **********************************************************************

 Alpha  occ. eigenvalues --  -20.28983 -11.04983  -1.30603  -0.86192  -0.62663
 Alpha  occ. eigenvalues --   -0.53513  -0.52114  -0.42473  -0.28501
 Alpha virt. eigenvalues --    0.57012   0.64671   0.70191   0.77627
  Beta  occ. eigenvalues --  -20.28726 -11.02089  -1.28826  -0.78325  -0.61150
  Beta  occ. eigenvalues --   -0.52296  -0.43531  -0.39712
  Beta virt. eigenvalues --    0.32683   0.58528   0.68854   0.73535   0.80814
          Condensed to atoms (all electrons):
          Atomic-Atomic Spin Densities.
 Mulliken charges and spin densities:
               1          2
     1  O   -0.276348   0.048871
     2  C   -0.014669   1.090433
     3  H    0.191758  -0.004211
     4  H    0.043468  -0.063474
     5  H    0.055791  -0.071619
 Sum of Mulliken charges =  -0.00000   1.00000
 Mulliken charges and spin densities with hydrogens summed into heavy atoms:
               1          2
     1  O   -0.084590   0.044659
     2  C    0.084590   0.955341
 Electronic spatial extent (au):  <R**2>=             75.5988
 Charge=             -0.0000 electrons
 Dipole moment (field-independent basis, Debye):
    X=              1.3098    Y=             -0.3215    Z=             -0.2548  Tot=              1.3726
                          Isotropic Fermi Contact Couplings
        Atom                 a.u.       MegaHertz       Gauss      10(-4) cm-1
     1  O(17)              0.02286     -13.85478      -4.94373      -4.62146
     2  C(13)              0.29984     337.08228     120.27934     112.43854
     3  H(1)              -0.00076      -3.37665      -1.20487      -1.12633
     4  H(1)              -0.02012     -89.94790     -32.09565     -30.00339
     5  H(1)              -0.02422    -108.26136     -38.63034     -36.11210
 --------------------------------------------------------
       Center         ----  Spin Dipole Couplings  ----
                      3XX-RR        3YY-RR        3ZZ-RR
 --------------------------------------------------------
     1   Atom       -0.152973      0.426217     -0.273244
     2   Atom       -0.499923      1.020688     -0.520765
     3   Atom       -0.000626     -0.017920      0.018546
     4   Atom        0.079469     -0.030353     -0.049115
     5   Atom        0.037814     -0.021214     -0.016600
 --------------------------------------------------------
                        XY            XZ            YZ
 --------------------------------------------------------
     1   Atom        0.113367      0.073813      0.040201
     2   Atom        0.133336      0.002309     -0.057680
     3   Atom        0.001218      0.027305      0.004293
     4   Atom        0.017532     -0.070838     -0.007979
     5   Atom       -0.031113      0.087511     -0.028411
 --------------------------------------------------------


 ---------------------------------------------------------------------------------
              Anisotropic Spin Dipole Couplings in Principal Axis System
 ---------------------------------------------------------------------------------

       Atom             a.u.   MegaHertz   Gauss  10(-4) cm-1        Axes

              Baa    -0.3085    22.326     7.967     7.447 -0.4397  0.0187  0.8980
     1 O(17)  Bbb    -0.1430    10.348     3.692     3.452  0.8773 -0.2054  0.4338
              Bcc     0.4516   -32.674   -11.659   -10.899  0.1925  0.9785  0.0739
 
              Baa    -0.5264   -70.643   -25.207   -23.564 -0.4349  0.0709  0.8977
     2 C(13)  Bbb    -0.5080   -68.163   -24.322   -22.737  0.8963 -0.0616  0.4391
              Bcc     1.0344   138.807    49.530    46.301  0.0865  0.9956 -0.0368
 
              Baa    -0.0208   -11.114    -3.966    -3.707  0.6875  0.4955 -0.5308
     3 H(1)   Bbb    -0.0174    -9.276    -3.310    -3.094 -0.4434  0.8654  0.2335
              Bcc     0.0382    20.389     7.275     6.801  0.5751  0.0748  0.8147
 
              Baa    -0.0805   -42.944   -15.324   -14.325  0.4046  0.0041  0.9145
     4 H(1)   Bbb    -0.0329   -17.571    -6.270    -5.861 -0.1231  0.9911  0.0500
              Bcc     0.1134    60.516    21.594    20.186  0.9062  0.1328 -0.4015
 
              Baa    -0.0814   -43.444   -15.502   -14.491 -0.5745  0.0871  0.8138
     5 H(1)   Bbb    -0.0337   -17.987    -6.418    -6.000  0.2891  0.9518  0.1022
              Bcc     0.1151    61.431    21.920    20.491  0.7657 -0.2939  0.5721
 

 ---------------------------------------------------------------------------------

 1\1\GINC-NODE091\FOpt\UHF\STO-3G\C1H3O1(2)\ROOT\17-Nov-2021\0\\#T UHF/
 STO-3G nosymm opt\\H3CO --> H2COH Products\\0,2\O,-0.1456428983,0.3829
 923246,0.6829472465\C,0.0289574365,0.0492904184,-0.6594850804\H,0.6885
 941188,0.0965790935,1.1317362382\H,1.0211112265,0.1654086971,-1.094730
 7775\H,-0.8157145134,0.3313255563,-1.2828770568\\Version=EM64L-G16RevA
 .03\HF=-112.9161111\S2=0.758867\S2-1=0.\S2A=0.750055\RMSD=4.374e-09\RM
 SF=1.636e-05\Dipole=0.5153195,-0.1264826,-0.1002648\Quadrupole=0.46251
 81,-0.7070071,0.244489,0.1165904,1.1037608,-0.603368\PG=C01 [X(C1H3O1)
 ]\\@


 Fatherhood is pretending the present you love most is soap-on-a-rope.
 -- Bill Cosby
 Job cpu time:       0 days  0 hours  2 minutes  1.5 seconds.
 Elapsed time:       0 days  0 hours  0 minutes 20.0 seconds.
 File lengths (MBytes):  RWF=     72 Int=      0 D2E=      0 Chk=      8 Scr=      8
 Normal termination of Gaussian 16 at Wed Nov 17 09:54:34 2021.
