************************************************************
This is node091 of the Cardinal research cluster.
Date: Wed Nov 17 09:56:46 EST 2021
************************************************************
 Set GAUSS_MDEF to "12GB".
 Set GAUSS_PDEF to "8".
 Entering Gaussian System, Link 0=g16
 Initial command:
 /usr/local/g16reva03/legacy_cpu/g16/l1.exe "/scratch/global/amkiny01/Gau-11848.inp" -scrdir="/scratch/global/amkiny01/"
 Default is to use a total of   8 processors:
                                8 via shared-memory
                                1 via Linda
 Entering Link 1 = /usr/local/g16reva03/legacy_cpu/g16/l1.exe PID=     11849.
  
 Copyright (c) 1988,1990,1992,1993,1995,1998,2003,2009,2016,
            Gaussian, Inc.  All Rights Reserved.
  
 This is part of the Gaussian(R) 16 program.  It is based on
 the Gaussian(R) 09 system (copyright 2009, Gaussian, Inc.),
 the Gaussian(R) 03 system (copyright 2003, Gaussian, Inc.),
 the Gaussian(R) 98 system (copyright 1998, Gaussian, Inc.),
 the Gaussian(R) 94 system (copyright 1995, Gaussian, Inc.),
 the Gaussian 92(TM) system (copyright 1992, Gaussian, Inc.),
 the Gaussian 90(TM) system (copyright 1990, Gaussian, Inc.),
 the Gaussian 88(TM) system (copyright 1988, Gaussian, Inc.),
 the Gaussian 86(TM) system (copyright 1986, Carnegie Mellon
 University), and the Gaussian 82(TM) system (copyright 1983,
 Carnegie Mellon University). Gaussian is a federally registered
 trademark of Gaussian, Inc.
  
 This software contains proprietary and confidential information,
 including trade secrets, belonging to Gaussian, Inc.
  
 This software is provided under written license and may be
 used, copied, transmitted, or stored only in accord with that
 written license.
  
 The following legend is applicable only to US Government
 contracts under FAR:
  
                    RESTRICTED RIGHTS LEGEND
  
 Use, reproduction and disclosure by the US Government is
 subject to restrictions as set forth in subparagraphs (a)
 and (c) of the Commercial Computer Software - Restricted
 Rights clause in FAR 52.227-19.
  
 Gaussian, Inc.
 340 Quinnipiac St., Bldg. 40, Wallingford CT 06492
  
  
 ---------------------------------------------------------------
 Warning -- This program may not be used in any manner that
 competes with the business of Gaussian, Inc. or will provide
 assistance to any competitor of Gaussian, Inc.  The licensee
 of this program is prohibited from giving any competitor of
 Gaussian, Inc. access to this program.  By using this program,
 the user acknowledges that Gaussian, Inc. is engaged in the
 business of creating and licensing software in the field of
 computational chemistry and represents and warrants to the
 licensee that it is not a competitor of Gaussian, Inc. and that
 it will not use this program in any manner prohibited above.
 ---------------------------------------------------------------
  

 Cite this work as:
 Gaussian 16, Revision A.03,
 M. J. Frisch, G. W. Trucks, H. B. Schlegel, G. E. Scuseria, 
 M. A. Robb, J. R. Cheeseman, G. Scalmani, V. Barone, 
 G. A. Petersson, H. Nakatsuji, X. Li, M. Caricato, A. V. Marenich, 
 J. Bloino, B. G. Janesko, R. Gomperts, B. Mennucci, H. P. Hratchian, 
 J. V. Ortiz, A. F. Izmaylov, J. L. Sonnenberg, D. Williams-Young, 
 F. Ding, F. Lipparini, F. Egidi, J. Goings, B. Peng, A. Petrone, 
 T. Henderson, D. Ranasinghe, V. G. Zakrzewski, J. Gao, N. Rega, 
 G. Zheng, W. Liang, M. Hada, M. Ehara, K. Toyota, R. Fukuda, 
 J. Hasegawa, M. Ishida, T. Nakajima, Y. Honda, O. Kitao, H. Nakai, 
 T. Vreven, K. Throssell, J. A. Montgomery, Jr., J. E. Peralta, 
 F. Ogliaro, M. J. Bearpark, J. J. Heyd, E. N. Brothers, K. N. Kudin, 
 V. N. Staroverov, T. A. Keith, R. Kobayashi, J. Normand, 
 K. Raghavachari, A. P. Rendell, J. C. Burant, S. S. Iyengar, 
 J. Tomasi, M. Cossi, J. M. Millam, M. Klene, C. Adamo, R. Cammi, 
 J. W. Ochterski, R. L. Martin, K. Morokuma, O. Farkas, 
 J. B. Foresman, and D. J. Fox, Gaussian, Inc., Wallingford CT, 2016.
 
 ******************************************
 Gaussian 16:  EM64L-G16RevA.03 25-Dec-2016
                17-Nov-2021 
 ******************************************
 %chk=reactant.chk
 ------------------------
 #T UHF/STO-3G opt nosymm
 ------------------------
 ------------------------
 H3CO --> H2COH Reactants
 ------------------------
 Symbolic Z-matrix:
 Charge =  0 Multiplicity = 2
 C                    -0.95652   0.33913   0. 
 H                    -0.59987  -0.66968   0. 
 H                    -0.59985   0.84353  -0.87365 
 H                    -2.02652   0.33914   0. 
 O                    -0.47985   1.01323   1.16759 
 

 GradGradGradGradGradGradGradGradGradGradGradGradGradGradGradGradGradGrad
 Initialization pass.
                           ----------------------------
                           !    Initial Parameters    !
                           ! (Angstroms and Degrees)  !
 --------------------------                            --------------------------
 ! Name  Definition              Value          Derivative Info.                !
 --------------------------------------------------------------------------------
 ! R1    R(1,2)                  1.07           estimate D2E/DX2                !
 ! R2    R(1,3)                  1.07           estimate D2E/DX2                !
 ! R3    R(1,4)                  1.07           estimate D2E/DX2                !
 ! R4    R(1,5)                  1.43           estimate D2E/DX2                !
 ! A1    A(2,1,3)              109.4712         estimate D2E/DX2                !
 ! A2    A(2,1,4)              109.4712         estimate D2E/DX2                !
 ! A3    A(2,1,5)              109.4712         estimate D2E/DX2                !
 ! A4    A(3,1,4)              109.4712         estimate D2E/DX2                !
 ! A5    A(3,1,5)              109.4713         estimate D2E/DX2                !
 ! A6    A(4,1,5)              109.4712         estimate D2E/DX2                !
 ! D1    D(2,1,4,3)           -120.0            estimate D2E/DX2                !
 ! D2    D(2,1,5,3)            120.0            estimate D2E/DX2                !
 ! D3    D(2,1,5,4)           -120.0            estimate D2E/DX2                !
 ! D4    D(3,1,5,4)            120.0            estimate D2E/DX2                !
 --------------------------------------------------------------------------------
 Number of steps in this run=     24 maximum allowed number of steps=    100.
 GradGradGradGradGradGradGradGradGradGradGradGradGradGradGradGradGradGrad

                    Distance matrix (angstroms):
                    1          2          3          4          5
     1  C    0.000000
     2  H    1.070000   0.000000
     3  H    1.070000   1.747302   0.000000
     4  H    1.070000   1.747303   1.747303   0.000000
     5  O    1.430000   2.051796   2.051796   2.051796   0.000000
 Symmetry turned off by external request.
 Framework group  C3V[C3(CO),3SGV(H)]
 Deg. of freedom     3
 Rotational constants (GHZ):         164.2463732          26.1613145          26.1613136
    13 basis functions,    39 primitive gaussians,    13 cartesian basis functions
     9 alpha electrons        8 beta electrons
       nuclear repulsion energy        33.7630220967 Hartrees.
 NAtoms=    5 NActive=    5 NUniq=    5 SFac= 1.00D+00 NAtFMM=   60 NAOKFM=F Big=F
 ExpMin= 1.69D-01 ExpMax= 1.31D+02 ExpMxC= 1.31D+02 IAcc=3 IRadAn=         5 AccDes= 0.00D+00
 Harris functional with IExCor=  205 and IRadAn=       5 diagonalized for initial guess.
 HarFok:  IExCor=  205 AccDes= 0.00D+00 IRadAn=         5 IDoV= 1 UseB2=F ITyADJ=14
 ICtDFT=  3500011 ScaDFX=  1.000000  1.000000  1.000000  1.000000
 FoFCou: FMM=F IPFlag=           0 FMFlag=      100000 FMFlg1=           0
         NFxFlg=           0 DoJE=T BraDBF=F KetDBF=T FulRan=T
         wScrn=  0.000000 ICntrl=       500 IOpCl=  0 I1Cent=   200000004 NGrid=           0
         NMat0=    1 NMatS0=      1 NMatT0=    0 NMatD0=    1 NMtDS0=    0 NMtDT0=    0
 Symmetry not used in FoFCou.
 Initial guess <Sx>= 0.0000 <Sy>= 0.0000 <Sz>= 0.5000 <S**2>= 0.7500 S= 0.5000
 SCF Done:  E(UHF) =  -112.958848175     A.U. after   35 cycles
            NFock= 35  Conv=0.88D-08     -V/T= 2.0073
 <Sx>= 0.0000 <Sy>= 0.0000 <Sz>= 0.5000 <S**2>= 0.7551 S= 0.5025
 <L.S>= 0.000000000000E+00
 Annihilation of the first spin contaminant:
 S**2 before annihilation     0.7551,   after     0.7500

 **********************************************************************

            Population analysis using the SCF density.

 **********************************************************************

 Alpha  occ. eigenvalues --  -20.29018 -11.08970  -1.30300  -0.88388  -0.62276
 Alpha  occ. eigenvalues --   -0.59315  -0.50185  -0.45665  -0.38569
 Alpha virt. eigenvalues --    0.59779   0.70818   0.71491   0.74637
  Beta  occ. eigenvalues --  -20.26178 -11.09318  -1.16378  -0.85639  -0.58612
  Beta  occ. eigenvalues --   -0.56678  -0.46160  -0.34092
  Beta virt. eigenvalues --    0.34840   0.62883   0.71386   0.72710   0.75288
          Condensed to atoms (all electrons):
          Atomic-Atomic Spin Densities.
 Mulliken charges and spin densities:
               1          2
     1  C   -0.121284  -0.132221
     2  H    0.084896   0.042183
     3  H    0.068795   0.006640
     4  H    0.078575   0.028273
     5  O   -0.110982   1.055125
 Sum of Mulliken charges =  -0.00000   1.00000
 Mulliken charges and spin densities with hydrogens summed into heavy atoms:
               1          2
     1  C    0.110982  -0.055125
     5  O   -0.110982   1.055125
 Electronic spatial extent (au):  <R**2>=            147.9717
 Charge=             -0.0000 electrons
 Dipole moment (field-independent basis, Debye):
    X=             -0.4350    Y=             -0.6719    Z=             -0.9967  Tot=              1.2783
                          Isotropic Fermi Contact Couplings
        Atom                 a.u.       MegaHertz       Gauss      10(-4) cm-1
     1  C(13)             -0.04801     -53.97652     -19.26016     -18.00463
     2  H(1)               0.01927      86.13775      30.73609      28.73246
     3  H(1)               0.00212       9.48301       3.38377       3.16319
     4  H(1)               0.01256      56.16240      20.04014      18.73376
     5  O(17)              0.07904     -47.91439     -17.09705     -15.98252
 --------------------------------------------------------
       Center         ----  Spin Dipole Couplings  ----
                      3XX-RR        3YY-RR        3ZZ-RR
 --------------------------------------------------------
     1   Atom       -0.010922     -0.009093      0.020015
     2   Atom       -0.009278      0.001485      0.007793
     3   Atom       -0.011421     -0.012805      0.024226
     4   Atom       -0.003711     -0.001807      0.005518
     5   Atom        0.643348      0.621189     -1.264538
 --------------------------------------------------------
                        XY            XZ            YZ
 --------------------------------------------------------
     1   Atom        0.013085      0.008286      0.013446
     2   Atom        0.010486      0.002440      0.022494
     3   Atom       -0.003589      0.006295      0.009278
     4   Atom        0.011255      0.020178      0.009239
     5   Atom       -2.029836      0.399122     -0.250788
 --------------------------------------------------------


 ---------------------------------------------------------------------------------
              Anisotropic Spin Dipole Couplings in Principal Axis System
 ---------------------------------------------------------------------------------

       Atom             a.u.   MegaHertz   Gauss  10(-4) cm-1        Axes

              Baa    -0.0234    -3.141    -1.121    -1.048 -0.6915  0.7167 -0.0900
     1 C(13)  Bbb    -0.0059    -0.796    -0.284    -0.266  0.6530  0.5669 -0.5023
              Bcc     0.0293     3.937     1.405     1.313  0.3090  0.4061  0.8600
 
              Baa    -0.0217   -11.594    -4.137    -3.867 -0.4991  0.7087 -0.4987
     2 H(1)   Bbb    -0.0076    -4.074    -1.454    -1.359  0.8369  0.2450 -0.4895
              Bcc     0.0294    15.668     5.591     5.226  0.2247  0.6617  0.7153
 
              Baa    -0.0187    -9.967    -3.556    -3.325  0.5958  0.7624 -0.2523
     3 H(1)   Bbb    -0.0085    -4.524    -1.614    -1.509  0.7911 -0.6113  0.0211
              Bcc     0.0272    14.491     5.171     4.834  0.1381  0.2122  0.9674
 
              Baa    -0.0205   -10.919    -3.896    -3.642  0.8069 -0.2142 -0.5505
     4 H(1)   Bbb    -0.0079    -4.216    -1.504    -1.406 -0.0885  0.8776 -0.4711
              Bcc     0.0284    15.135     5.400     5.048  0.5840  0.4289  0.6892
 
              Baa    -1.4681   106.230    37.905    35.434  0.6262  0.5410 -0.5613
     5 O(17)  Bbb    -1.2472    90.247    32.202    30.103  0.3299  0.4684  0.8196
              Bcc     2.7153  -196.477   -70.108   -65.538  0.7064 -0.6985  0.1149
 

 ---------------------------------------------------------------------------------

 Calling FoFJK, ICntrl=      2127 FMM=F ISym2X=0 I1Cent= 0 IOpClX= 1 NMat=1 NMatS=1 NMatT=0.

 GradGradGradGradGradGradGradGradGradGradGradGradGradGradGradGradGradGrad
 FormGI is forming the generalized inverse of G from B-inverse, IUseBI=4.
 Internal  Forces:  Max     0.022817902 RMS     0.011251392
 Step number   1 out of a maximum of   24
 All quantities printed in internal units (Hartrees-Bohrs-Radians)
 Mixed Optimization -- RFO/linear search
 Second derivative matrix not updated -- first step.
 ITU=  0
     Eigenvalues ---    0.05657   0.06410   0.08880   0.16000   0.16000
     Eigenvalues ---    0.37230   0.37230   0.37230   0.40989
 Linear search not attempted -- first point.
 Iteration  1 RMS(Cart)=  0.03808383 RMS(Int)=  0.00111688
 Iteration  2 RMS(Cart)=  0.00072604 RMS(Int)=  0.00058288
 Iteration  3 RMS(Cart)=  0.00000107 RMS(Int)=  0.00058288
 Iteration  4 RMS(Cart)=  0.00000000 RMS(Int)=  0.00058288
 Variable       Old X    -DE/DX   Delta X   Delta X   Delta X     New X
                                 (Linear)    (Quad)   (Total)
    R1        2.02201   0.02032   0.00000   0.05379   0.05379   2.07580
    R2        2.02201   0.02282   0.00000   0.06040   0.06040   2.08241
    R3        2.02201   0.02127   0.00000   0.05631   0.05631   2.07832
    R4        2.70231   0.01533   0.00000   0.03689   0.03689   2.73920
    A1        1.91063  -0.00117   0.00000  -0.01714  -0.01715   1.89348
    A2        1.91063  -0.00057   0.00000  -0.02493  -0.02523   1.88541
    A3        1.91063  -0.00500   0.00000  -0.02697  -0.02654   1.88409
    A4        1.91063  -0.00344   0.00000  -0.01460  -0.01615   1.89448
    A5        1.91063   0.00904   0.00000   0.07169   0.07141   1.98204
    A6        1.91063   0.00114   0.00000   0.01194   0.01128   1.92191
    D1       -2.09439   0.00389   0.00000   0.04519   0.04456  -2.04983
    D2        2.09439   0.00104   0.00000   0.00640   0.00572   2.10011
    D3       -2.09440   0.00306   0.00000   0.03973   0.03988  -2.05452
    D4        2.09440   0.00202   0.00000   0.03333   0.03416   2.12855
         Item               Value     Threshold  Converged?
 Maximum Force            0.022818     0.000450     NO 
 RMS     Force            0.011251     0.000300     NO 
 Maximum Displacement     0.094800     0.001800     NO 
 RMS     Displacement     0.037916     0.001200     NO 
 GradGradGradGradGradGradGradGradGradGradGradGradGradGradGradGradGradGrad

                    Distance matrix (angstroms):
                    1          2          3          4          5
     1  C    0.000000
     2  H    1.098464   0.000000
     3  H    1.101962   1.785679   0.000000
     4  H    1.099798   1.778723   1.787407   0.000000
     5  O    1.449524   2.071034   2.143011   2.099354   0.000000
 Symmetry turned off by external request.
 Framework group  C1[X(CH3O)]
 Deg. of freedom     9
 Rotational constants (GHZ):         157.7605199          25.2367703          25.2149983
    13 basis functions,    39 primitive gaussians,    13 cartesian basis functions
     9 alpha electrons        8 beta electrons
       nuclear repulsion energy        33.1080390403 Hartrees.
 NAtoms=    5 NActive=    5 NUniq=    5 SFac= 1.00D+00 NAtFMM=   60 NAOKFM=F Big=F
 Initial guess from the checkpoint file:  "reactant.chk"
 B after Tr=     0.009857    0.014570    0.021999
         Rot=    0.999965   -0.007871    0.002323    0.001870 Ang=  -0.96 deg.
 Initial guess <Sx>= 0.0000 <Sy>= 0.0000 <Sz>= 0.5000 <S**2>= 0.7553 S= 0.5026
 ExpMin= 1.69D-01 ExpMax= 1.31D+02 ExpMxC= 1.31D+02 IAcc=2 IRadAn=         4 AccDes= 0.00D+00
 Harris functional with IExCor=  205 and IRadAn=       4 diagonalized for initial guess.
 HarFok:  IExCor=  205 AccDes= 0.00D+00 IRadAn=         4 IDoV= 1 UseB2=F ITyADJ=14
 ICtDFT=  3500011 ScaDFX=  1.000000  1.000000  1.000000  1.000000
 FoFCou: FMM=F IPFlag=           0 FMFlag=      100000 FMFlg1=           0
         NFxFlg=           0 DoJE=T BraDBF=F KetDBF=T FulRan=T
         wScrn=  0.000000 ICntrl=       500 IOpCl=  0 I1Cent=   200000004 NGrid=           0
         NMat0=    1 NMatS0=      1 NMatT0=    0 NMatD0=    1 NMtDS0=    0 NMtDT0=    0
 Symmetry not used in FoFCou.
 SCF Done:  E(UHF) =  -112.960593544     A.U. after   21 cycles
            NFock= 21  Conv=0.10D-07     -V/T= 2.0082
 <Sx>= 0.0000 <Sy>= 0.0000 <Sz>= 0.5000 <S**2>= 0.7559 S= 0.5029
 <L.S>= 0.000000000000E+00
 Annihilation of the first spin contaminant:
 S**2 before annihilation     0.7559,   after     0.7500
 Calling FoFJK, ICntrl=      2127 FMM=F ISym2X=0 I1Cent= 0 IOpClX= 1 NMat=1 NMatS=1 NMatT=0.

 GradGradGradGradGradGradGradGradGradGradGradGradGradGradGradGradGradGrad
 Using GEDIIS/GDIIS optimizer.
 FormGI is forming the generalized inverse of G from B-inverse, IUseBI=4.
 Internal  Forces:  Max     0.008980942 RMS     0.003918481
 Step number   2 out of a maximum of   24
 All quantities printed in internal units (Hartrees-Bohrs-Radians)
 Mixed Optimization -- RFO/linear search
 Trust test= 6.22D-01 RLast= 1.52D-01 DXMaxT set to 4.55D-01
 ITU=  1  0
 Use linear search instead of GDIIS.
     Eigenvalues ---    0.05449   0.06417   0.09389   0.15967   0.16671
     Eigenvalues ---    0.37139   0.37230   0.38505   0.49961
 Quartic linear search produced a step of -0.26311.
 Iteration  1 RMS(Cart)=  0.01158243 RMS(Int)=  0.00016557
 Iteration  2 RMS(Cart)=  0.00007758 RMS(Int)=  0.00013438
 Iteration  3 RMS(Cart)=  0.00000001 RMS(Int)=  0.00013438
 Variable       Old X    -DE/DX   Delta X   Delta X   Delta X     New X
                                 (Linear)    (Quad)   (Total)
    R1        2.07580  -0.00495  -0.01415   0.00435  -0.00980   2.06600
    R2        2.08241  -0.00711  -0.01589   0.00182  -0.01407   2.06834
    R3        2.07832  -0.00575  -0.01482   0.00344  -0.01138   2.06694
    R4        2.73920  -0.00898  -0.00971  -0.00641  -0.01612   2.72309
    A1        1.89348   0.00065   0.00451   0.00075   0.00520   1.89868
    A2        1.88541  -0.00013   0.00664  -0.00017   0.00651   1.89191
    A3        1.88409   0.00134   0.00698  -0.00336   0.00351   1.88760
    A4        1.89448   0.00168   0.00425   0.00421   0.00880   1.90329
    A5        1.98204  -0.00405  -0.01879  -0.00630  -0.02503   1.95701
    A6        1.92191   0.00066  -0.00297   0.00499   0.00217   1.92408
    D1       -2.04983  -0.00160  -0.01173  -0.00308  -0.01469  -2.06452
    D2        2.10011  -0.00081  -0.00150  -0.00535  -0.00668   2.09343
    D3       -2.05452  -0.00099  -0.01049  -0.00062  -0.01114  -2.06566
    D4        2.12855  -0.00018  -0.00899   0.00473  -0.00446   2.12409
         Item               Value     Threshold  Converged?
 Maximum Force            0.008981     0.000450     NO 
 RMS     Force            0.003918     0.000300     NO 
 Maximum Displacement     0.028728     0.001800     NO 
 RMS     Displacement     0.011604     0.001200     NO 
 GradGradGradGradGradGradGradGradGradGradGradGradGradGradGradGradGradGrad

                    Distance matrix (angstroms):
                    1          2          3          4          5
     1  C    0.000000
     2  H    1.093279   0.000000
     3  H    1.094516   1.778744   0.000000
     4  H    1.093776   1.773827   1.782082   0.000000
     5  O    1.440996   2.062354   2.112496   2.088880   0.000000
 Symmetry turned off by external request.
 Framework group  C1[X(CH3O)]
 Deg. of freedom     9
 Rotational constants (GHZ):         158.6735146          25.5819075          25.5596319
    13 basis functions,    39 primitive gaussians,    13 cartesian basis functions
     9 alpha electrons        8 beta electrons
       nuclear repulsion energy        33.3110617585 Hartrees.
 NAtoms=    5 NActive=    5 NUniq=    5 SFac= 1.00D+00 NAtFMM=   60 NAOKFM=F Big=F
 Initial guess from the checkpoint file:  "reactant.chk"
 B after Tr=    -0.004892   -0.005982   -0.010832
         Rot=    0.999996    0.002255   -0.001500   -0.000072 Ang=   0.31 deg.
 Initial guess <Sx>= 0.0000 <Sy>= 0.0000 <Sz>= 0.5000 <S**2>= 0.7558 S= 0.5029
 ExpMin= 1.69D-01 ExpMax= 1.31D+02 ExpMxC= 1.31D+02 IAcc=2 IRadAn=         4 AccDes= 0.00D+00
 Harris functional with IExCor=  205 and IRadAn=       4 diagonalized for initial guess.
 HarFok:  IExCor=  205 AccDes= 0.00D+00 IRadAn=         4 IDoV= 1 UseB2=F ITyADJ=14
 ICtDFT=  3500011 ScaDFX=  1.000000  1.000000  1.000000  1.000000
 FoFCou: FMM=F IPFlag=           0 FMFlag=      100000 FMFlg1=           0
         NFxFlg=           0 DoJE=T BraDBF=F KetDBF=T FulRan=T
         wScrn=  0.000000 ICntrl=       500 IOpCl=  0 I1Cent=   200000004 NGrid=           0
         NMat0=    1 NMatS0=      1 NMatT0=    0 NMatD0=    1 NMtDS0=    0 NMtDT0=    0
 Symmetry not used in FoFCou.
 SCF Done:  E(UHF) =  -112.960857746     A.U. after   23 cycles
            NFock= 23  Conv=0.63D-08     -V/T= 2.0080
 <Sx>= 0.0000 <Sy>= 0.0000 <Sz>= 0.5000 <S**2>= 0.7556 S= 0.5028
 <L.S>= 0.000000000000E+00
 Annihilation of the first spin contaminant:
 S**2 before annihilation     0.7556,   after     0.7500
 Calling FoFJK, ICntrl=      2127 FMM=F ISym2X=0 I1Cent= 0 IOpClX= 1 NMat=1 NMatS=1 NMatT=0.

 GradGradGradGradGradGradGradGradGradGradGradGradGradGradGradGradGradGrad
 Using GEDIIS/GDIIS optimizer.
 FormGI is forming the generalized inverse of G from B-inverse, IUseBI=4.
 Internal  Forces:  Max     0.001110981 RMS     0.000467779
 Step number   3 out of a maximum of   24
 All quantities printed in internal units (Hartrees-Bohrs-Radians)
 Mixed Optimization -- En-DIIS/RFO-DIIS
 Trust test= 1.06D+00 RLast= 4.33D-02 DXMaxT set to 4.55D-01
 ITU=  1  1  0
 Use linear search instead of GDIIS.
     Eigenvalues ---    0.05527   0.06403   0.09242   0.15360   0.17330
     Eigenvalues ---    0.37067   0.37221   0.37770   0.48844
 Quartic linear search produced a step of  0.00627.
 Iteration  1 RMS(Cart)=  0.00361934 RMS(Int)=  0.00001531
 Iteration  2 RMS(Cart)=  0.00001071 RMS(Int)=  0.00000955
 Iteration  3 RMS(Cart)=  0.00000000 RMS(Int)=  0.00000955
 Variable       Old X    -DE/DX   Delta X   Delta X   Delta X     New X
                                 (Linear)    (Quad)   (Total)
    R1        2.06600  -0.00064  -0.00006  -0.00193  -0.00200   2.06400
    R2        2.06834  -0.00051  -0.00009  -0.00175  -0.00183   2.06650
    R3        2.06694  -0.00042  -0.00007  -0.00142  -0.00149   2.06545
    R4        2.72309   0.00022  -0.00010  -0.00002  -0.00013   2.72296
    A1        1.89868   0.00004   0.00003  -0.00299  -0.00297   1.89571
    A2        1.89191  -0.00024   0.00004  -0.00201  -0.00196   1.88995
    A3        1.88760  -0.00063   0.00002  -0.00440  -0.00437   1.88323
    A4        1.90329  -0.00039   0.00006  -0.00036  -0.00032   1.90297
    A5        1.95701   0.00009  -0.00016   0.00064   0.00046   1.95747
    A6        1.92408   0.00111   0.00001   0.00884   0.00885   1.93293
    D1       -2.06452   0.00031  -0.00009   0.00494   0.00485  -2.05967
    D2        2.09343  -0.00031  -0.00004  -0.00622  -0.00626   2.08717
    D3       -2.06566   0.00004  -0.00007   0.00000  -0.00006  -2.06572
    D4        2.12409   0.00035  -0.00003   0.00622   0.00620   2.13030
         Item               Value     Threshold  Converged?
 Maximum Force            0.001111     0.000450     NO 
 RMS     Force            0.000468     0.000300     NO 
 Maximum Displacement     0.006569     0.001800     NO 
 RMS     Displacement     0.003617     0.001200     NO 
 GradGradGradGradGradGradGradGradGradGradGradGradGradGradGradGradGradGrad

                    Distance matrix (angstroms):
                    1          2          3          4          5
     1  C    0.000000
     2  H    1.092223   0.000000
     3  H    1.093545   1.775207   0.000000
     4  H    1.092987   1.771076   1.780444   0.000000
     5  O    1.440929   2.058330   2.112005   2.094465   0.000000
 Symmetry turned off by external request.
 Framework group  C1[X(CH3O)]
 Deg. of freedom     9
 Rotational constants (GHZ):         159.1617055          25.5803366          25.5538910
    13 basis functions,    39 primitive gaussians,    13 cartesian basis functions
     9 alpha electrons        8 beta electrons
       nuclear repulsion energy        33.3197532827 Hartrees.
 NAtoms=    5 NActive=    5 NUniq=    5 SFac= 1.00D+00 NAtFMM=   60 NAOKFM=F Big=F
 Initial guess from the checkpoint file:  "reactant.chk"
 B after Tr=    -0.001457   -0.001230   -0.002751
         Rot=    0.999999   -0.000415   -0.000863    0.000653 Ang=  -0.13 deg.
 Initial guess <Sx>= 0.0000 <Sy>= 0.0000 <Sz>= 0.5000 <S**2>= 0.7556 S= 0.5028
 SCF Done:  E(UHF) =  -112.960873420     A.U. after   28 cycles
            NFock= 28  Conv=0.78D-09     -V/T= 2.0080
 <Sx>= 0.0000 <Sy>= 0.0000 <Sz>= 0.5000 <S**2>= 0.7555 S= 0.5028
 <L.S>= 0.000000000000E+00
 Annihilation of the first spin contaminant:
 S**2 before annihilation     0.7555,   after     0.7500
 Calling FoFJK, ICntrl=      2127 FMM=F ISym2X=0 I1Cent= 0 IOpClX= 1 NMat=1 NMatS=1 NMatT=0.

 GradGradGradGradGradGradGradGradGradGradGradGradGradGradGradGradGradGrad
 Using GEDIIS/GDIIS optimizer.
 FormGI is forming the generalized inverse of G from B-inverse, IUseBI=4.
 Internal  Forces:  Max     0.000768438 RMS     0.000318700
 Step number   4 out of a maximum of   24
 All quantities printed in internal units (Hartrees-Bohrs-Radians)
 Mixed Optimization -- En-DIIS/RFO-DIIS
 Swapping is turned off.
 Trust test= 1.45D+00 RLast= 1.49D-02 DXMaxT set to 4.55D-01
 ITU=  1  1  1  0
     Eigenvalues ---    0.02575   0.06575   0.09369   0.11882   0.18564
     Eigenvalues ---    0.37181   0.37381   0.46195   0.56893
 En-DIIS/RFO-DIIS/Sim-DIIS IScMMF=       -3 using points:     4    3
 RFO step:  Lambda=-2.71756727D-05.
 DidBck=F Rises=F RFO-DIIS coefs:    2.81657   -1.81657
 Iteration  1 RMS(Cart)=  0.00764993 RMS(Int)=  0.00007617
 Iteration  2 RMS(Cart)=  0.00004575 RMS(Int)=  0.00005660
 Iteration  3 RMS(Cart)=  0.00000000 RMS(Int)=  0.00005660
 Variable       Old X    -DE/DX   Delta X   Delta X   Delta X     New X
                                 (Linear)    (Quad)   (Total)
    R1        2.06400   0.00036  -0.00362   0.00310  -0.00052   2.06348
    R2        2.06650   0.00021  -0.00333   0.00201  -0.00132   2.06518
    R3        2.06545   0.00038  -0.00271   0.00270  -0.00001   2.06544
    R4        2.72296  -0.00001  -0.00023  -0.00086  -0.00108   2.72188
    A1        1.89571   0.00012  -0.00539   0.00117  -0.00431   1.89140
    A2        1.88995  -0.00003  -0.00357   0.00382   0.00032   1.89027
    A3        1.88323  -0.00034  -0.00794  -0.00142  -0.00943   1.87380
    A4        1.90297  -0.00007  -0.00059   0.00173   0.00111   1.90408
    A5        1.95747  -0.00044   0.00084  -0.00786  -0.00713   1.95035
    A6        1.93293   0.00077   0.01608   0.00290   0.01896   1.95189
    D1       -2.05967  -0.00008   0.00881  -0.00452   0.00435  -2.05532
    D2        2.08717  -0.00034  -0.01137  -0.00422  -0.01551   2.07166
    D3       -2.06572  -0.00019  -0.00010  -0.00543  -0.00545  -2.07117
    D4        2.13030   0.00015   0.01127  -0.00121   0.01006   2.14036
         Item               Value     Threshold  Converged?
 Maximum Force            0.000768     0.000450     NO 
 RMS     Force            0.000319     0.000300     NO 
 Maximum Displacement     0.015132     0.001800     NO 
 RMS     Displacement     0.007647     0.001200     NO 
 GradGradGradGradGradGradGradGradGradGradGradGradGradGradGradGradGradGrad

                    Distance matrix (angstroms):
                    1          2          3          4          5
     1  C    0.000000
     2  H    1.091948   0.000000
     3  H    1.092845   1.771664   0.000000
     4  H    1.092981   1.771051   1.780575   0.000000
     5  O    1.440355   2.050748   2.106025   2.107200   0.000000
 Symmetry turned off by external request.
 Framework group  C1[X(CH3O)]
 Deg. of freedom     9
 Rotational constants (GHZ):         159.4069484          25.5968643          25.5645923
    13 basis functions,    39 primitive gaussians,    13 cartesian basis functions
     9 alpha electrons        8 beta electrons
       nuclear repulsion energy        33.3310442943 Hartrees.
 NAtoms=    5 NActive=    5 NUniq=    5 SFac= 1.00D+00 NAtFMM=   60 NAOKFM=F Big=F
 Initial guess from the checkpoint file:  "reactant.chk"
 B after Tr=    -0.004208   -0.004092   -0.007812
         Rot=    0.999996   -0.000227   -0.002305    0.001383 Ang=  -0.31 deg.
 Initial guess <Sx>= 0.0000 <Sy>= 0.0000 <Sz>= 0.5000 <S**2>= 0.7555 S= 0.5028
 SCF Done:  E(UHF) =  -112.960879127     A.U. after   30 cycles
            NFock= 30  Conv=0.54D-08     -V/T= 2.0080
 <Sx>= 0.0000 <Sy>= 0.0000 <Sz>= 0.5000 <S**2>= 0.7555 S= 0.5028
 <L.S>= 0.000000000000E+00
 Annihilation of the first spin contaminant:
 S**2 before annihilation     0.7555,   after     0.7500
 Calling FoFJK, ICntrl=      2127 FMM=F ISym2X=0 I1Cent= 0 IOpClX= 1 NMat=1 NMatS=1 NMatT=0.

 GradGradGradGradGradGradGradGradGradGradGradGradGradGradGradGradGradGrad
 Using GEDIIS/GDIIS optimizer.
 FormGI is forming the generalized inverse of G from B-inverse, IUseBI=4.
 Internal  Forces:  Max     0.000786974 RMS     0.000466015
 Step number   5 out of a maximum of   24
 All quantities printed in internal units (Hartrees-Bohrs-Radians)
 Mixed Optimization -- En-DIIS/RFO-DIIS
 Swapping is turned off.
 Trust test= 4.23D-01 RLast= 3.02D-02 DXMaxT set to 4.55D-01
 ITU=  0  1  1  1  0
     Eigenvalues ---    0.03890   0.06955   0.09808   0.12631   0.19773
     Eigenvalues ---    0.37220   0.37290   0.45949   0.47905
 En-DIIS/RFO-DIIS/Sim-DIIS IScMMF=       -3 using points:     5    4    3
 RFO step:  Lambda=-1.45173176D-05.
 DidBck=T Rises=F RFO-DIIS coefs:    0.66933   -0.19232    0.52299
 Iteration  1 RMS(Cart)=  0.00450976 RMS(Int)=  0.00002786
 Iteration  2 RMS(Cart)=  0.00001612 RMS(Int)=  0.00002105
 Iteration  3 RMS(Cart)=  0.00000000 RMS(Int)=  0.00002105
 Variable       Old X    -DE/DX   Delta X   Delta X   Delta X     New X
                                 (Linear)    (Quad)   (Total)
    R1        2.06348   0.00079   0.00122   0.00011   0.00133   2.06481
    R2        2.06518   0.00062   0.00140   0.00011   0.00150   2.06668
    R3        2.06544   0.00053   0.00078  -0.00001   0.00077   2.06620
    R4        2.72188   0.00020   0.00042   0.00054   0.00097   2.72284
    A1        1.89140  -0.00007   0.00298  -0.00072   0.00228   1.89369
    A2        1.89027   0.00014   0.00092   0.00018   0.00108   1.89135
    A3        1.87380   0.00078   0.00541   0.00177   0.00721   1.88100
    A4        1.90408   0.00034  -0.00020  -0.00057  -0.00076   1.90332
    A5        1.95035  -0.00045   0.00211  -0.00085   0.00130   1.95165
    A6        1.95189  -0.00070  -0.01090   0.00022  -0.01067   1.94122
    D1       -2.05532  -0.00018  -0.00398   0.00108  -0.00292  -2.05824
    D2        2.07166   0.00014   0.00840  -0.00026   0.00811   2.07977
    D3       -2.07117  -0.00026   0.00183  -0.00146   0.00034  -2.07082
    D4        2.14036  -0.00040  -0.00657  -0.00120  -0.00777   2.13259
         Item               Value     Threshold  Converged?
 Maximum Force            0.000787     0.000450     NO 
 RMS     Force            0.000466     0.000300     NO 
 Maximum Displacement     0.008304     0.001800     NO 
 RMS     Displacement     0.004513     0.001200     NO 
 GradGradGradGradGradGradGradGradGradGradGradGradGradGradGradGradGradGrad

                    Distance matrix (angstroms):
                    1          2          3          4          5
     1  C    0.000000
     2  H    1.092652   0.000000
     3  H    1.093642   1.774341   0.000000
     4  H    1.093388   1.772644   1.781074   0.000000
     5  O    1.440867   2.056976   2.107992   2.100532   0.000000
 Symmetry turned off by external request.
 Framework group  C1[X(CH3O)]
 Deg. of freedom     9
 Rotational constants (GHZ):         159.0835661          25.5795364          25.5531901
    13 basis functions,    39 primitive gaussians,    13 cartesian basis functions
     9 alpha electrons        8 beta electrons
       nuclear repulsion energy        33.3171646161 Hartrees.
 NAtoms=    5 NActive=    5 NUniq=    5 SFac= 1.00D+00 NAtFMM=   60 NAOKFM=F Big=F
 Initial guess from the checkpoint file:  "reactant.chk"
 B after Tr=     0.002348    0.002305    0.004772
         Rot=    0.999999    0.000506    0.001193   -0.000878 Ang=   0.18 deg.
 Initial guess <Sx>= 0.0000 <Sy>= 0.0000 <Sz>= 0.5000 <S**2>= 0.7555 S= 0.5028
 SCF Done:  E(UHF) =  -112.960883861     A.U. after   22 cycles
            NFock= 22  Conv=0.28D-08     -V/T= 2.0080
 <Sx>= 0.0000 <Sy>= 0.0000 <Sz>= 0.5000 <S**2>= 0.7555 S= 0.5028
 <L.S>= 0.000000000000E+00
 Annihilation of the first spin contaminant:
 S**2 before annihilation     0.7555,   after     0.7500
 Calling FoFJK, ICntrl=      2127 FMM=F ISym2X=0 I1Cent= 0 IOpClX= 1 NMat=1 NMatS=1 NMatT=0.

 GradGradGradGradGradGradGradGradGradGradGradGradGradGradGradGradGradGrad
 Using GEDIIS/GDIIS optimizer.
 FormGI is forming the generalized inverse of G from B-inverse, IUseBI=4.
 Internal  Forces:  Max     0.000420596 RMS     0.000168934
 Step number   6 out of a maximum of   24
 All quantities printed in internal units (Hartrees-Bohrs-Radians)
 Mixed Optimization -- En-DIIS/RFO-DIIS
 Swapping is turned off.
 Trust test= 7.50D-01 RLast= 1.77D-02 DXMaxT set to 4.55D-01
 ITU=  1  0  1  1  1  0
     Eigenvalues ---    0.03793   0.06250   0.09613   0.12962   0.19018
     Eigenvalues ---    0.37235   0.37660   0.43132   0.50000
 En-DIIS/RFO-DIIS/Sim-DIIS IScMMF=       -3 using points:     6    5    4    3
 RFO step:  Lambda=-4.98063155D-06.
 DidBck=F Rises=F RFO-DIIS coefs:    1.03528    0.34517   -0.69402    0.31357
 Iteration  1 RMS(Cart)=  0.00182324 RMS(Int)=  0.00001013
 Iteration  2 RMS(Cart)=  0.00000272 RMS(Int)=  0.00000966
 Iteration  3 RMS(Cart)=  0.00000000 RMS(Int)=  0.00000966
 Variable       Old X    -DE/DX   Delta X   Delta X   Delta X     New X
                                 (Linear)    (Quad)   (Total)
    R1        2.06481  -0.00001   0.00047  -0.00045   0.00002   2.06483
    R2        2.06668   0.00004   0.00013  -0.00012   0.00001   2.06669
    R3        2.06620   0.00013   0.00049  -0.00018   0.00031   2.06651
    R4        2.72284  -0.00001  -0.00034   0.00028  -0.00006   2.72278
    A1        1.89369   0.00009  -0.00063   0.00000  -0.00062   1.89306
    A2        1.89135   0.00002   0.00077   0.00022   0.00098   1.89233
    A3        1.88100  -0.00033  -0.00196  -0.00012  -0.00209   1.87892
    A4        1.90332  -0.00006   0.00050  -0.00014   0.00038   1.90370
    A5        1.95165  -0.00015  -0.00281   0.00006  -0.00274   1.94891
    A6        1.94122   0.00042   0.00406  -0.00002   0.00405   1.94527
    D1       -2.05824  -0.00009   0.00003  -0.00005  -0.00002  -2.05827
    D2        2.07977  -0.00018  -0.00365  -0.00004  -0.00369   2.07608
    D3       -2.07082  -0.00007  -0.00204  -0.00018  -0.00224  -2.07306
    D4        2.13259   0.00012   0.00161  -0.00015   0.00145   2.13404
         Item               Value     Threshold  Converged?
 Maximum Force            0.000421     0.000450     YES
 RMS     Force            0.000169     0.000300     YES
 Maximum Displacement     0.003486     0.001800     NO 
 RMS     Displacement     0.001824     0.001200     NO 
 GradGradGradGradGradGradGradGradGradGradGradGradGradGradGradGradGradGrad

                    Distance matrix (angstroms):
                    1          2          3          4          5
     1  C    0.000000
     2  H    1.092662   0.000000
     3  H    1.093646   1.773956   0.000000
     4  H    1.093551   1.773409   1.781453   0.000000
     5  O    1.440833   2.055433   2.106065   2.103456   0.000000
 Symmetry turned off by external request.
 Framework group  C1[X(CH3O)]
 Deg. of freedom     9
 Rotational constants (GHZ):         159.0460890          25.5822692          25.5552904
    13 basis functions,    39 primitive gaussians,    13 cartesian basis functions
     9 alpha electrons        8 beta electrons
       nuclear repulsion energy        33.3175613073 Hartrees.
 NAtoms=    5 NActive=    5 NUniq=    5 SFac= 1.00D+00 NAtFMM=   60 NAOKFM=F Big=F
 Initial guess from the checkpoint file:  "reactant.chk"
 B after Tr=    -0.001047   -0.001159   -0.001917
         Rot=    1.000000    0.000048   -0.000564    0.000297 Ang=   0.07 deg.
 Initial guess <Sx>= 0.0000 <Sy>= 0.0000 <Sz>= 0.5000 <S**2>= 0.7555 S= 0.5028
 SCF Done:  E(UHF) =  -112.960886422     A.U. after   20 cycles
            NFock= 20  Conv=0.69D-08     -V/T= 2.0080
 <Sx>= 0.0000 <Sy>= 0.0000 <Sz>= 0.5000 <S**2>= 0.7555 S= 0.5028
 <L.S>= 0.000000000000E+00
 Annihilation of the first spin contaminant:
 S**2 before annihilation     0.7555,   after     0.7500
 Calling FoFJK, ICntrl=      2127 FMM=F ISym2X=0 I1Cent= 0 IOpClX= 1 NMat=1 NMatS=1 NMatT=0.

 GradGradGradGradGradGradGradGradGradGradGradGradGradGradGradGradGradGrad
 Using GEDIIS/GDIIS optimizer.
 FormGI is forming the generalized inverse of G from B-inverse, IUseBI=4.
 Internal  Forces:  Max     0.000152245 RMS     0.000054195
 Step number   7 out of a maximum of   24
 All quantities printed in internal units (Hartrees-Bohrs-Radians)
 Mixed Optimization -- En-DIIS/RFO-DIIS
 Swapping is turned off.
 Trust test= 1.10D+00 RLast= 7.11D-03 DXMaxT set to 4.55D-01
 ITU=  1  1  0  1  1  1  0
     Eigenvalues ---    0.03529   0.06028   0.09268   0.12809   0.18425
     Eigenvalues ---    0.37209   0.37776   0.43876   0.49995
 En-DIIS/RFO-DIIS/Sim-DIIS IScMMF=       -3 using points:     7    6    5    4    3
 RFO step:  Lambda=-6.83470113D-07.
 DIIS inversion failure, remove point   5.
 RFO-DIIS uses    4 points instead of    5
 DidBck=F Rises=F RFO-DIIS coefs:    1.21774   -0.03852    0.01362   -0.19284    0.00000
 Iteration  1 RMS(Cart)=  0.00115852 RMS(Int)=  0.00000668
 Iteration  2 RMS(Cart)=  0.00000105 RMS(Int)=  0.00000657
 Iteration  3 RMS(Cart)=  0.00000000 RMS(Int)=  0.00000657
 Variable       Old X    -DE/DX   Delta X   Delta X   Delta X     New X
                                 (Linear)    (Quad)   (Total)
    R1        2.06483   0.00001   0.00014  -0.00011   0.00004   2.06487
    R2        2.06669  -0.00002   0.00002  -0.00013  -0.00011   2.06658
    R3        2.06651   0.00002   0.00020  -0.00009   0.00011   2.06662
    R4        2.72278   0.00001  -0.00005   0.00004  -0.00001   2.72277
    A1        1.89306   0.00003  -0.00056   0.00008  -0.00049   1.89257
    A2        1.89233  -0.00001   0.00047  -0.00005   0.00042   1.89275
    A3        1.87892  -0.00007  -0.00098   0.00002  -0.00097   1.87794
    A4        1.90370  -0.00002   0.00016  -0.00005   0.00012   1.90383
    A5        1.94891  -0.00008  -0.00174  -0.00007  -0.00182   1.94710
    A6        1.94527   0.00015   0.00263   0.00008   0.00270   1.94798
    D1       -2.05827  -0.00001   0.00031  -0.00004   0.00028  -2.05799
    D2        2.07608  -0.00006  -0.00234   0.00006  -0.00227   2.07381
    D3       -2.07306  -0.00003  -0.00148   0.00000  -0.00147  -2.07454
    D4        2.13404   0.00003   0.00086  -0.00006   0.00080   2.13484
         Item               Value     Threshold  Converged?
 Maximum Force            0.000152     0.000450     YES
 RMS     Force            0.000054     0.000300     YES
 Maximum Displacement     0.002265     0.001800     NO 
 RMS     Displacement     0.001159     0.001200     YES
 GradGradGradGradGradGradGradGradGradGradGradGradGradGradGradGradGradGrad

                    Distance matrix (angstroms):
                    1          2          3          4          5
     1  C    0.000000
     2  H    1.092681   0.000000
     3  H    1.093587   1.773610   0.000000
     4  H    1.093610   1.773740   1.781530   0.000000
     5  O    1.440829   2.054732   2.104753   2.105382   0.000000
 Symmetry turned off by external request.
 Framework group  C1[X(CH3O)]
 Deg. of freedom     9
 Rotational constants (GHZ):         159.0469459          25.5826992          25.5553548
    13 basis functions,    39 primitive gaussians,    13 cartesian basis functions
     9 alpha electrons        8 beta electrons
       nuclear repulsion energy        33.3176619149 Hartrees.
 NAtoms=    5 NActive=    5 NUniq=    5 SFac= 1.00D+00 NAtFMM=   60 NAOKFM=F Big=F
 Initial guess from the checkpoint file:  "reactant.chk"
 B after Tr=    -0.000608   -0.000648   -0.001099
         Rot=    1.000000    0.000065   -0.000363    0.000177 Ang=   0.05 deg.
 Initial guess <Sx>= 0.0000 <Sy>= 0.0000 <Sz>= 0.5000 <S**2>= 0.7555 S= 0.5028
 SCF Done:  E(UHF) =  -112.960886673     A.U. after   18 cycles
            NFock= 18  Conv=0.82D-08     -V/T= 2.0080
 <Sx>= 0.0000 <Sy>= 0.0000 <Sz>= 0.5000 <S**2>= 0.7556 S= 0.5028
 <L.S>= 0.000000000000E+00
 Annihilation of the first spin contaminant:
 S**2 before annihilation     0.7556,   after     0.7500
 Calling FoFJK, ICntrl=      2127 FMM=F ISym2X=0 I1Cent= 0 IOpClX= 1 NMat=1 NMatS=1 NMatT=0.

 GradGradGradGradGradGradGradGradGradGradGradGradGradGradGradGradGradGrad
 Using GEDIIS/GDIIS optimizer.
 FormGI is forming the generalized inverse of G from B-inverse, IUseBI=4.
 Internal  Forces:  Max     0.000075679 RMS     0.000030422
 Step number   8 out of a maximum of   24
 All quantities printed in internal units (Hartrees-Bohrs-Radians)
 Mixed Optimization -- En-DIIS/RFO-DIIS
 Swapping is turned off.
 Trust test= 7.68D-01 RLast= 4.48D-03 DXMaxT set to 4.55D-01
 ITU=  0  1  1  0  1  1  1  0
     Eigenvalues ---    0.03802   0.06040   0.09578   0.13163   0.18986
     Eigenvalues ---    0.37230   0.37795   0.44463   0.49172
 En-DIIS/RFO-DIIS/Sim-DIIS IScMMF=       -3 using points:     8    7    6    5    4    3
 RFO step:  Lambda=-1.05840075D-07.
 DIIS inversion failure, remove point   6.
 DIIS inversion failure, remove point   5.
 DIIS inversion failure, remove point   4.
 DIIS inversion failure, remove point   3.
 RFO-DIIS uses    2 points instead of    6
 DidBck=T Rises=F RFO-DIIS coefs:    0.75675    0.24325    0.00000    0.00000    0.00000
                  RFO-DIIS coefs:    0.00000
 Iteration  1 RMS(Cart)=  0.00030202 RMS(Int)=  0.00000025
 Iteration  2 RMS(Cart)=  0.00000007 RMS(Int)=  0.00000023
 Variable       Old X    -DE/DX   Delta X   Delta X   Delta X     New X
                                 (Linear)    (Quad)   (Total)
    R1        2.06487   0.00001  -0.00001   0.00002   0.00001   2.06487
    R2        2.06658   0.00000   0.00003   0.00000   0.00003   2.06661
    R3        2.06662  -0.00001  -0.00003   0.00001  -0.00002   2.06661
    R4        2.72277  -0.00001   0.00000   0.00002   0.00002   2.72279
    A1        1.89257  -0.00001   0.00012   0.00001   0.00013   1.89271
    A2        1.89275  -0.00000  -0.00010   0.00005  -0.00006   1.89269
    A3        1.87794   0.00008   0.00024   0.00024   0.00048   1.87842
    A4        1.90383   0.00002  -0.00003  -0.00003  -0.00006   1.90376
    A5        1.94710  -0.00001   0.00044  -0.00021   0.00024   1.94733
    A6        1.94798  -0.00007  -0.00066  -0.00005  -0.00070   1.94727
    D1       -2.05799   0.00001  -0.00007  -0.00002  -0.00009  -2.05808
    D2        2.07381   0.00003   0.00055   0.00005   0.00060   2.07441
    D3       -2.07454  -0.00000   0.00036  -0.00018   0.00018  -2.07436
    D4        2.13484  -0.00003  -0.00019  -0.00022  -0.00042   2.13442
         Item               Value     Threshold  Converged?
 Maximum Force            0.000076     0.000450     YES
 RMS     Force            0.000030     0.000300     YES
 Maximum Displacement     0.000583     0.001800     YES
 RMS     Displacement     0.000302     0.001200     YES
 Optimization completed.
    -- Stationary point found.
                           ----------------------------
                           !   Optimized Parameters   !
                           ! (Angstroms and Degrees)  !
 --------------------------                            --------------------------
 ! Name  Definition              Value          Derivative Info.                !
 --------------------------------------------------------------------------------
 ! R1    R(1,2)                  1.0927         -DE/DX =    0.0                 !
 ! R2    R(1,3)                  1.0936         -DE/DX =    0.0                 !
 ! R3    R(1,4)                  1.0936         -DE/DX =    0.0                 !
 ! R4    R(1,5)                  1.4408         -DE/DX =    0.0                 !
 ! A1    A(2,1,3)              108.4365         -DE/DX =    0.0                 !
 ! A2    A(2,1,4)              108.4465         -DE/DX =    0.0                 !
 ! A3    A(2,1,5)              107.5981         -DE/DX =    0.0001              !
 ! A4    A(3,1,4)              109.0812         -DE/DX =    0.0                 !
 ! A5    A(3,1,5)              111.5604         -DE/DX =    0.0                 !
 ! A6    A(4,1,5)              111.6108         -DE/DX =   -0.0001              !
 ! D1    D(2,1,4,3)           -117.9141         -DE/DX =    0.0                 !
 ! D2    D(2,1,5,3)            118.8207         -DE/DX =    0.0                 !
 ! D3    D(2,1,5,4)           -118.8621         -DE/DX =    0.0                 !
 ! D4    D(3,1,5,4)            122.3172         -DE/DX =    0.0                 !
 --------------------------------------------------------------------------------
 GradGradGradGradGradGradGradGradGradGradGradGradGradGradGradGradGradGrad

                    Distance matrix (angstroms):
                    1          2          3          4          5
     1  C    0.000000
     2  H    1.092681   0.000000
     3  H    1.093587   1.773610   0.000000
     4  H    1.093610   1.773740   1.781530   0.000000
     5  O    1.440829   2.054732   2.104753   2.105382   0.000000
 Symmetry turned off by external request.
 Framework group  C1[X(CH3O)]
 Deg. of freedom     9
 Rotational constants (GHZ):         159.0469459          25.5826992          25.5553548

 **********************************************************************

            Population analysis using the SCF density.

 **********************************************************************

 Alpha  occ. eigenvalues --  -20.29280 -11.08940  -1.29959  -0.87525  -0.61384
 Alpha  occ. eigenvalues --   -0.58243  -0.50034  -0.45385  -0.38698
 Alpha virt. eigenvalues --    0.58896   0.68511   0.69404   0.71585
  Beta  occ. eigenvalues --  -20.26436 -11.09305  -1.15811  -0.84966  -0.57523
  Beta  occ. eigenvalues --   -0.55417  -0.45995  -0.34245
  Beta virt. eigenvalues --    0.34709   0.62115   0.69232   0.70268   0.72274
          Condensed to atoms (all electrons):
          Atomic-Atomic Spin Densities.
 Mulliken charges and spin densities:
               1          2
     1  C   -0.105221  -0.136964
     2  H    0.079561   0.048266
     3  H    0.066995   0.015491
     4  H    0.066860   0.015146
     5  O   -0.108194   1.058061
 Sum of Mulliken charges =  -0.00000   1.00000
 Mulliken charges and spin densities with hydrogens summed into heavy atoms:
               1          2
     1  C    0.108194  -0.058061
     5  O   -0.108194   1.058061
 Electronic spatial extent (au):  <R**2>=            149.5709
 Charge=             -0.0000 electrons
 Dipole moment (field-independent basis, Debye):
    X=             -0.4001    Y=             -0.6403    Z=             -1.0238  Tot=              1.2721
                          Isotropic Fermi Contact Couplings
        Atom                 a.u.       MegaHertz       Gauss      10(-4) cm-1
     1  C(13)             -0.05122     -57.58497     -20.54775     -19.20828
     2  H(1)               0.02204      98.52905      35.15761      32.86575
     3  H(1)               0.00631      28.20480      10.06417       9.40811
     4  H(1)               0.00615      27.47097       9.80232       9.16333
     5  O(17)              0.07645     -46.34256     -16.53618     -15.45821
 --------------------------------------------------------
       Center         ----  Spin Dipole Couplings  ----
                      3XX-RR        3YY-RR        3ZZ-RR
 --------------------------------------------------------
     1   Atom       -0.002002     -0.017254      0.019257
     2   Atom       -0.009994      0.000406      0.009588
     3   Atom       -0.010726     -0.010671      0.021396
     4   Atom       -0.001877     -0.002536      0.004413
     5   Atom       -0.578669      1.608039     -1.029371
 --------------------------------------------------------
                        XY            XZ            YZ
 --------------------------------------------------------
     1   Atom        0.012346      0.009798      0.012429
     2   Atom        0.011067      0.002504      0.022681
     3   Atom       -0.003598      0.007383      0.009733
     4   Atom        0.009491      0.018497      0.007521
     5   Atom       -1.583475      0.562344     -0.842228
 --------------------------------------------------------


 ---------------------------------------------------------------------------------
              Anisotropic Spin Dipole Couplings in Principal Axis System
 ---------------------------------------------------------------------------------

       Atom             a.u.   MegaHertz   Gauss  10(-4) cm-1        Axes

              Baa    -0.0251    -3.373    -1.203    -1.125 -0.4110  0.8974 -0.1605
     1 C(13)  Bbb    -0.0037    -0.500    -0.178    -0.167  0.8168  0.2843 -0.5020
              Bcc     0.0289     3.873     1.382     1.292  0.4048  0.3374  0.8499
 
              Baa    -0.0226   -12.044    -4.298    -4.018 -0.5334  0.7103 -0.4594
     2 H(1)   Bbb    -0.0076    -4.059    -1.448    -1.354  0.8161  0.2893 -0.5004
              Bcc     0.0302    16.103     5.746     5.371  0.2225  0.6418  0.7339
 
              Baa    -0.0180    -9.621    -3.433    -3.209  0.6450  0.7050 -0.2948
     3 H(1)   Bbb    -0.0072    -3.820    -1.363    -1.274  0.7445 -0.6667  0.0347
              Bcc     0.0252    13.441     4.796     4.484  0.1721  0.2419  0.9549
 
              Baa    -0.0180    -9.596    -3.424    -3.201  0.7874 -0.1998 -0.5832
     4 H(1)   Bbb    -0.0072    -3.820    -1.363    -1.274 -0.0934  0.8964 -0.4333
              Bcc     0.0251    13.416     4.787     4.475  0.6093  0.3956  0.6872
 
              Baa    -1.4717   106.491    37.999    35.522  0.8185  0.2843 -0.4992
     5 O(17)  Bbb    -1.2387    89.629    31.982    29.897  0.3513  0.4399  0.8265
              Bcc     2.7104  -196.119   -69.980   -65.418 -0.4546  0.8518 -0.2602
 

 ---------------------------------------------------------------------------------

 1\1\GINC-NODE091\FOpt\UHF\STO-3G\C1H3O1(2)\ROOT\17-Nov-2021\0\\#T UHF/
 STO-3G opt nosymm\\H3CO --> H2COH Reactants\\0,2\C,-0.9593360117,0.355
 6770209,0.0052553344\H,-0.590999297,-0.6730221723,0.012828168\H,-0.597
 6570469,0.8458556999,-0.902954551\H,-2.0525369513,0.3316757157,-0.0125
 662998\O,-0.4620773632,1.0051695059,1.1913761783\\Version=EM64L-G16Rev
 A.03\HF=-112.9608867\S2=0.755551\S2-1=0.\S2A=0.75001\RMSD=8.244e-09\RM
 SF=3.135e-05\Dipole=-0.1574252,-0.2519083,-0.4028106\Quadrupole=0.7766
 589,0.0544523,-0.8311112,-0.1490762,0.3177562,-1.0303237\PG=C01 [X(C1H
 3O1)]\\@


 Once you get people laughing, they're
 listening and you can tell them almost anything.
                                 -- Herb Gardner
 Job cpu time:       0 days  0 hours  1 minutes 19.6 seconds.
 Elapsed time:       0 days  0 hours  0 minutes 13.2 seconds.
 File lengths (MBytes):  RWF=     72 Int=      0 D2E=      0 Chk=      8 Scr=      8
 Normal termination of Gaussian 16 at Wed Nov 17 09:57:01 2021.
