************************************************************
This is node098 of the Cardinal research cluster.
Date: Wed Nov 17 11:00:09 EST 2021
************************************************************
 Set GAUSS_MDEF to "12GB".
 Set GAUSS_PDEF to "8".
 Entering Gaussian System, Link 0=g16
 Initial command:
 /usr/local/g16reva03/legacy_cpu/g16/l1.exe "/scratch/global/amkiny01/Gau-14955.inp" -scrdir="/scratch/global/amkiny01/"
 Default is to use a total of   8 processors:
                                8 via shared-memory
                                1 via Linda
 Entering Link 1 = /usr/local/g16reva03/legacy_cpu/g16/l1.exe PID=     14956.
  
 Copyright (c) 1988,1990,1992,1993,1995,1998,2003,2009,2016,
            Gaussian, Inc.  All Rights Reserved.
  
 This is part of the Gaussian(R) 16 program.  It is based on
 the Gaussian(R) 09 system (copyright 2009, Gaussian, Inc.),
 the Gaussian(R) 03 system (copyright 2003, Gaussian, Inc.),
 the Gaussian(R) 98 system (copyright 1998, Gaussian, Inc.),
 the Gaussian(R) 94 system (copyright 1995, Gaussian, Inc.),
 the Gaussian 92(TM) system (copyright 1992, Gaussian, Inc.),
 the Gaussian 90(TM) system (copyright 1990, Gaussian, Inc.),
 the Gaussian 88(TM) system (copyright 1988, Gaussian, Inc.),
 the Gaussian 86(TM) system (copyright 1986, Carnegie Mellon
 University), and the Gaussian 82(TM) system (copyright 1983,
 Carnegie Mellon University). Gaussian is a federally registered
 trademark of Gaussian, Inc.
  
 This software contains proprietary and confidential information,
 including trade secrets, belonging to Gaussian, Inc.
  
 This software is provided under written license and may be
 used, copied, transmitted, or stored only in accord with that
 written license.
  
 The following legend is applicable only to US Government
 contracts under FAR:
  
                    RESTRICTED RIGHTS LEGEND
  
 Use, reproduction and disclosure by the US Government is
 subject to restrictions as set forth in subparagraphs (a)
 and (c) of the Commercial Computer Software - Restricted
 Rights clause in FAR 52.227-19.
  
 Gaussian, Inc.
 340 Quinnipiac St., Bldg. 40, Wallingford CT 06492
  
  
 ---------------------------------------------------------------
 Warning -- This program may not be used in any manner that
 competes with the business of Gaussian, Inc. or will provide
 assistance to any competitor of Gaussian, Inc.  The licensee
 of this program is prohibited from giving any competitor of
 Gaussian, Inc. access to this program.  By using this program,
 the user acknowledges that Gaussian, Inc. is engaged in the
 business of creating and licensing software in the field of
 computational chemistry and represents and warrants to the
 licensee that it is not a competitor of Gaussian, Inc. and that
 it will not use this program in any manner prohibited above.
 ---------------------------------------------------------------
  

 Cite this work as:
 Gaussian 16, Revision A.03,
 M. J. Frisch, G. W. Trucks, H. B. Schlegel, G. E. Scuseria, 
 M. A. Robb, J. R. Cheeseman, G. Scalmani, V. Barone, 
 G. A. Petersson, H. Nakatsuji, X. Li, M. Caricato, A. V. Marenich, 
 J. Bloino, B. G. Janesko, R. Gomperts, B. Mennucci, H. P. Hratchian, 
 J. V. Ortiz, A. F. Izmaylov, J. L. Sonnenberg, D. Williams-Young, 
 F. Ding, F. Lipparini, F. Egidi, J. Goings, B. Peng, A. Petrone, 
 T. Henderson, D. Ranasinghe, V. G. Zakrzewski, J. Gao, N. Rega, 
 G. Zheng, W. Liang, M. Hada, M. Ehara, K. Toyota, R. Fukuda, 
 J. Hasegawa, M. Ishida, T. Nakajima, Y. Honda, O. Kitao, H. Nakai, 
 T. Vreven, K. Throssell, J. A. Montgomery, Jr., J. E. Peralta, 
 F. Ogliaro, M. J. Bearpark, J. J. Heyd, E. N. Brothers, K. N. Kudin, 
 V. N. Staroverov, T. A. Keith, R. Kobayashi, J. Normand, 
 K. Raghavachari, A. P. Rendell, J. C. Burant, S. S. Iyengar, 
 J. Tomasi, M. Cossi, J. M. Millam, M. Klene, C. Adamo, R. Cammi, 
 J. W. Ochterski, R. L. Martin, K. Morokuma, O. Farkas, 
 J. B. Foresman, and D. J. Fox, Gaussian, Inc., Wallingford CT, 2016.
 
 ******************************************
 Gaussian 16:  EM64L-G16RevA.03 25-Dec-2016
                17-Nov-2021 
 ******************************************
 %chk=stable_resonance_structure.chk
 -----------------------
 # opt uhf/sto-3g nosymm
 -----------------------
 1/18=20,19=15,38=1/1,3;
 2/9=110,12=2,15=1,17=6,18=5,40=1/2;
 3/6=3,11=2,25=1,30=1,71=1,116=2/1,2,3;
 4//1;
 5/5=2,38=5/2;
 6/7=2,8=2,9=2,10=2,28=1/1;
 7/30=1/1,2,3,16;
 1/18=20,19=15/3(2);
 2/9=110,15=1/2;
 99//99;
 2/9=110,15=1/2;
 3/6=3,11=2,25=1,30=1,71=1,116=2/1,2,3;
 4/5=5,16=3,69=1/1;
 5/5=2,38=5/2;
 7/30=1/1,2,3,16;
 1/18=20,19=15/3(-5);
 2/9=110,15=1/2;
 6/7=2,8=2,9=2,10=2,19=2,28=1/1;
 99/9=1/99;
 ----------------------------------
 stable resonance structure H3CN=-N
 ----------------------------------
 Symbolic Z-matrix:
 Charge =  0 Multiplicity = 2
 N                     0.78271   0.39245  -0.21006 
 N                    -0.30928   0.39251  -0.21189 
 C                    -1.04428  -0.87977  -0.25632 
 H                    -0.78726  -1.47019   0.59822 
 H                    -2.09627  -0.6843   -0.25145 
 H                    -0.78432  -1.4109   -1.14807 
 

 GradGradGradGradGradGradGradGradGradGradGradGradGradGradGradGradGradGrad
 Berny optimization.
 Initialization pass.
                           ----------------------------
                           !    Initial Parameters    !
                           ! (Angstroms and Degrees)  !
 --------------------------                            --------------------------
 ! Name  Definition              Value          Derivative Info.                !
 --------------------------------------------------------------------------------
 ! R1    R(1,2)                  1.092          estimate D2E/DX2                !
 ! R2    R(2,3)                  1.47           estimate D2E/DX2                !
 ! R3    R(3,4)                  1.07           estimate D2E/DX2                !
 ! R4    R(3,5)                  1.07           estimate D2E/DX2                !
 ! R5    R(3,6)                  1.07           estimate D2E/DX2                !
 ! A1    A(1,2,3)              120.0            estimate D2E/DX2                !
 ! A2    A(2,3,4)              109.4712         estimate D2E/DX2                !
 ! A3    A(2,3,5)              109.4712         estimate D2E/DX2                !
 ! A4    A(2,3,6)              109.4712         estimate D2E/DX2                !
 ! A5    A(4,3,5)              109.4713         estimate D2E/DX2                !
 ! A6    A(4,3,6)              109.4712         estimate D2E/DX2                !
 ! A7    A(5,3,6)              109.4712         estimate D2E/DX2                !
 ! D1    D(1,2,3,4)             60.0001         estimate D2E/DX2                !
 ! D2    D(1,2,3,5)           -179.9999         estimate D2E/DX2                !
 ! D3    D(1,2,3,6)            -59.9999         estimate D2E/DX2                !
 --------------------------------------------------------------------------------
 Trust Radius=3.00D-01 FncErr=1.00D-07 GrdErr=1.00D-07 EigMax=2.50D+02 EigMin=1.00D-04
 Number of steps in this run=     25 maximum allowed number of steps=    100.
 GradGradGradGradGradGradGradGradGradGradGradGradGradGradGradGradGradGrad

                          Input orientation:                          
 ---------------------------------------------------------------------
 Center     Atomic      Atomic             Coordinates (Angstroms)
 Number     Number       Type             X           Y           Z
 ---------------------------------------------------------------------
      1          7           0        0.782714    0.392448   -0.210059
      2          7           0       -0.309284    0.392511   -0.211892
      3          6           0       -1.044284   -0.879771   -0.256321
      4          1           0       -0.787261   -1.470189    0.598223
      5          1           0       -2.096267   -0.684302   -0.251454
      6          1           0       -0.784325   -1.410904   -1.148071
 ---------------------------------------------------------------------
                    Distance matrix (angstroms):
                    1          2          3          4          5
     1  N    0.000000
     2  N    1.092000   0.000000
     3  C    2.226792   1.470000   0.000000
     4  H    2.566624   2.086720   1.070000   0.000000
     5  H    3.074026   2.086720   1.070000   1.747303   0.000000
     6  H    2.566623   2.086720   1.070000   1.747303   1.747303
                    6
     6  H    0.000000
 Symmetry turned off by external request.
 Stoichiometry    CH3N2(2)
 Framework group  C1[X(CH3N2)]
 Deg. of freedom    12
 Full point group                 C1      NOp   1
 Rotational constants (GHZ):          76.1292804          12.3193708          11.3352836
 Standard basis: STO-3G (5D, 7F)
    18 basis functions,    54 primitive gaussians,    18 cartesian basis functions
    12 alpha electrons       11 beta electrons
       nuclear repulsion energy        68.0729431298 Hartrees.
 NAtoms=    6 NActive=    6 NUniq=    6 SFac= 1.00D+00 NAtFMM=   60 NAOKFM=F Big=F
 Integral buffers will be    131072 words long.
 Raffenetti 2 integral format.
 Two-electron integral symmetry is turned off.
 One-electron integrals computed using PRISM.
 NBasis=    18 RedAO= T EigKep=  1.56D-01  NBF=    18
 NBsUse=    18 1.00D-06 EigRej= -1.00D+00 NBFU=    18
 ExpMin= 1.69D-01 ExpMax= 9.91D+01 ExpMxC= 9.91D+01 IAcc=3 IRadAn=         5 AccDes= 0.00D+00
 Harris functional with IExCor=  205 and IRadAn=       5 diagonalized for initial guess.
 HarFok:  IExCor=  205 AccDes= 0.00D+00 IRadAn=         5 IDoV= 1 UseB2=F ITyADJ=14
 ICtDFT=  3500011 ScaDFX=  1.000000  1.000000  1.000000  1.000000
 FoFCou: FMM=F IPFlag=           0 FMFlag=      100000 FMFlg1=           0
         NFxFlg=           0 DoJE=T BraDBF=F KetDBF=T FulRan=T
         wScrn=  0.000000 ICntrl=       500 IOpCl=  0 I1Cent=   200000004 NGrid=           0
         NMat0=    1 NMatS0=      1 NMatT0=    0 NMatD0=    1 NMtDS0=    0 NMtDT0=    0
 Symmetry not used in FoFCou.
 Initial guess <Sx>= 0.0000 <Sy>= 0.0000 <Sz>= 0.5000 <S**2>= 0.7500 S= 0.5000
 Keep R1 and R2 ints in memory in canonical form, NReq=1638828.
 Requested convergence on RMS density matrix=1.00D-08 within 128 cycles.
 Requested convergence on MAX density matrix=1.00D-06.
 Requested convergence on             energy=1.00D-06.
 No special actions if energy rises.
 SCF Done:  E(UHF) =  -146.528723031     A.U. after   17 cycles
            NFock= 17  Conv=0.38D-08     -V/T= 2.0068
 <Sx>= 0.0000 <Sy>= 0.0000 <Sz>= 0.5000 <S**2>= 0.7826 S= 0.5162
 <L.S>= 0.000000000000E+00
 Annihilation of the first spin contaminant:
 S**2 before annihilation     0.7826,   after     0.7506

 **********************************************************************

            Population analysis using the SCF density.

 **********************************************************************

 Alpha  occ. eigenvalues --  -15.45742 -15.42499 -11.11833  -1.42730  -1.01156
 Alpha  occ. eigenvalues --   -0.75050  -0.67259  -0.62516  -0.58252  -0.51568
 Alpha  occ. eigenvalues --   -0.49984  -0.27207
 Alpha virt. eigenvalues --    0.30881   0.60159   0.67799   0.69728   0.73121
 Alpha virt. eigenvalues --    1.18954
  Beta  occ. eigenvalues --  -15.45762 -15.40159 -11.10988  -1.39051  -0.97813
  Beta  occ. eigenvalues --   -0.70422  -0.62386  -0.60305  -0.51814  -0.48480
  Beta  occ. eigenvalues --   -0.44726
  Beta virt. eigenvalues --    0.29434   0.34089   0.64974   0.68800   0.70587
  Beta virt. eigenvalues --    0.74221   1.22984
          Condensed to atoms (all electrons):
               1          2          3          4          5          6
     1  N    6.597106   0.499333  -0.050900  -0.003096   0.001872  -0.003096
     2  N    0.499333   6.423647   0.269966  -0.016673  -0.022519  -0.016673
     3  C   -0.050900   0.269966   4.731076   0.385246   0.390355   0.385246
     4  H   -0.003096  -0.016673   0.385246   0.579511  -0.021669  -0.020070
     5  H    0.001872  -0.022519   0.390355  -0.021669   0.577840  -0.021669
     6  H   -0.003096  -0.016673   0.385246  -0.020070  -0.021669   0.579511
          Atomic-Atomic Spin Densities.
               1          2          3          4          5          6
     1  N    1.066010  -0.112327  -0.023781   0.001435  -0.000013   0.001435
     2  N   -0.112327   0.001088  -0.019447   0.001968   0.001318   0.001968
     3  C   -0.023781  -0.019447   0.307751  -0.007440  -0.001965  -0.007440
     4  H    0.001435   0.001968  -0.007440  -0.016752   0.000997   0.001968
     5  H   -0.000013   0.001318  -0.001965   0.000997  -0.020694   0.000997
     6  H    0.001435   0.001968  -0.007440   0.001968   0.000997  -0.016752
 Mulliken charges and spin densities:
               1          2
     1  N   -0.041219   0.932759
     2  N   -0.137081  -0.125432
     3  C   -0.110990   0.247678
     4  H    0.096751  -0.017823
     5  H    0.095789  -0.019360
     6  H    0.096751  -0.017823
 Sum of Mulliken charges =  -0.00000   1.00000
 Mulliken charges and spin densities with hydrogens summed into heavy atoms:
               1          2
     1  N   -0.041219   0.932759
     2  N   -0.137081  -0.125432
     3  C    0.178300   0.192673
 Electronic spatial extent (au):  <R**2>=            149.1010
 Charge=             -0.0000 electrons
 Dipole moment (field-independent basis, Debye):
    X=             -1.3725    Y=             -1.7217    Z=             -0.0608  Tot=              2.2026
 Quadrupole moment (field-independent basis, Debye-Ang):
   XX=            -17.8136   YY=            -16.5643   ZZ=            -15.7894
   XY=              0.7226   XZ=              0.3296   YZ=              0.3627
 Traceless Quadrupole moment (field-independent basis, Debye-Ang):
   XX=             -1.0912   YY=              0.1582   ZZ=              0.9330
   XY=              0.7226   XZ=              0.3296   YZ=              0.3627
 Octapole moment (field-independent basis, Debye-Ang**2):
  XXX=             11.6557  YYY=              7.7863  ZZZ=             10.9241  XYY=              5.2374
  XXY=              1.3784  XXZ=              4.0502  XZZ=              5.5173  YZZ=              2.3115
  YYZ=              3.8330  XYZ=             -0.1763
 Hexadecapole moment (field-independent basis, Debye-Ang**3):
 XXXX=            -87.2639 YYYY=            -63.2732 ZZZZ=            -22.5990 XXXY=            -24.1430
 XXXZ=             -3.4933 YYYX=            -23.6070 YYYZ=             -2.7006 ZZZX=             -4.5957
 ZZZY=             -2.2746 XXYY=            -26.3382 XXZZ=            -19.1766 YYZZ=            -13.0469
 XXYZ=             -0.5993 YYXZ=             -1.4824 ZZXY=             -7.6126
 N-N= 6.807294312979D+01 E-N=-4.786675203243D+02  KE= 1.455411949503D+02
                          Isotropic Fermi Contact Couplings
        Atom                 a.u.       MegaHertz       Gauss      10(-4) cm-1
     1  N(14)              0.08543      27.60324       9.84952       9.20745
     2  N(14)              0.10761      34.77053      12.40699      11.59820
     3  C(13)              0.13492     151.67851      54.12267      50.59451
     4  H(1)              -0.00664     -29.65817     -10.58277      -9.89290
     5  H(1)              -0.00769     -34.35307     -12.25803     -11.45895
     6  H(1)              -0.00664     -29.65808     -10.58274      -9.89287
 --------------------------------------------------------
       Center         ----  Spin Dipole Couplings  ----
                      3XX-RR        3YY-RR        3ZZ-RR
 --------------------------------------------------------
     1   Atom       -0.898858      1.353532     -0.454673
     2   Atom        0.266814      0.143456     -0.410270
     3   Atom       -0.007253      0.117226     -0.109973
     4   Atom       -0.009800      0.004016      0.005783
     5   Atom        0.031847     -0.010883     -0.020964
     6   Atom       -0.009772      0.001021      0.008751
 --------------------------------------------------------
                        XY            XZ            YZ
 --------------------------------------------------------
     1   Atom       -0.208250     -0.007813      0.061109
     2   Atom       -0.284535     -0.008521      0.018342
     3   Atom        0.142314      0.005005      0.007962
     4   Atom        0.007142      0.004303     -0.022180
     5   Atom        0.000866      0.000118      0.000344
     6   Atom        0.007345     -0.003869      0.021882
 --------------------------------------------------------


 ---------------------------------------------------------------------------------
              Anisotropic Spin Dipole Couplings in Principal Axis System
 ---------------------------------------------------------------------------------

       Atom             a.u.   MegaHertz   Gauss  10(-4) cm-1        Axes

              Baa    -0.9180   -35.404   -12.633   -11.809  0.9958  0.0912  0.0048
     1 N(14)  Bbb    -0.4567   -17.615    -6.286    -5.876 -0.0017 -0.0339  0.9994
              Bcc     1.3747    53.019    18.918    17.685 -0.0913  0.9953  0.0336
 
              Baa    -0.4109   -15.847    -5.654    -5.286 -0.0017 -0.0339  0.9994
     2 N(14)  Bbb    -0.0858    -3.308    -1.180    -1.103  0.6282  0.7776  0.0275
              Bcc     0.4966    19.154     6.835     6.389  0.7781 -0.6279 -0.0200
 
              Baa    -0.1103   -14.795    -5.279    -4.935 -0.0017 -0.0339  0.9994
     3 C(13)  Bbb    -0.1003   -13.465    -4.805    -4.491  0.8370 -0.5469 -0.0172
              Bcc     0.2106    28.259    10.084     9.426  0.5472  0.8365  0.0293
 
              Baa    -0.0225   -12.017    -4.288    -4.008 -0.5405  0.6204  0.5683
     4 H(1)   Bbb    -0.0047    -2.492    -0.889    -0.831  0.8398  0.3561  0.4099
              Bcc     0.0272    14.509     5.177     4.840 -0.0519 -0.6988  0.7135
 
              Baa    -0.0210   -11.192    -3.994    -3.733 -0.0017 -0.0339  0.9994
     5 H(1)   Bbb    -0.0109    -5.810    -2.073    -1.938 -0.0204  0.9992  0.0339
              Bcc     0.0319    17.002     6.067     5.671  0.9998  0.0203  0.0024
 
              Baa    -0.0225   -12.017    -4.288    -4.008 -0.5386  0.6576 -0.5267
     6 H(1)   Bbb    -0.0047    -2.492    -0.889    -0.831  0.8411  0.3830 -0.3819
              Bcc     0.0272    14.509     5.177     4.840  0.0494  0.6488  0.7594
 

 ---------------------------------------------------------------------------------

 Calling FoFJK, ICntrl=      2127 FMM=F ISym2X=0 I1Cent= 0 IOpClX= 1 NMat=1 NMatS=1 NMatT=0.
 -------------------------------------------------------------------
 Center     Atomic                   Forces (Hartrees/Bohr)
 Number     Number              X              Y              Z
 -------------------------------------------------------------------
      1        7           0.431045847    0.009599600    0.001050161
      2        7          -0.397007729    0.036228843    0.000562893
      3        6          -0.026089420   -0.028531946   -0.001012543
      4        1           0.004114135   -0.010762406    0.014386496
      5        1          -0.016226579    0.003228299    0.000082357
      6        1           0.004163746   -0.009762390   -0.015069364
 -------------------------------------------------------------------
 Cartesian Forces:  Max     0.431045847 RMS     0.138898584

 GradGradGradGradGradGradGradGradGradGradGradGradGradGradGradGradGradGrad
 Berny optimization.
 FormGI is forming the generalized inverse of G from B-inverse, IUseBI=4.
 Internal  Forces:  Max     0.431046447 RMS     0.112655680
 Search for a local minimum.
 Step number   1 out of a maximum of   25
 All quantities printed in internal units (Hartrees-Bohrs-Radians)
 Mixed Optimization -- RFO/linear search
 Second derivative matrix not updated -- first step.
 The second derivative matrix:
                          R1        R2        R3        R4        R5
           R1           1.85037
           R2           0.00000   0.35740
           R3           0.00000   0.00000   0.37230
           R4           0.00000   0.00000   0.00000   0.37230
           R5           0.00000   0.00000   0.00000   0.00000   0.37230
           A1           0.00000   0.00000   0.00000   0.00000   0.00000
           A2           0.00000   0.00000   0.00000   0.00000   0.00000
           A3           0.00000   0.00000   0.00000   0.00000   0.00000
           A4           0.00000   0.00000   0.00000   0.00000   0.00000
           A5           0.00000   0.00000   0.00000   0.00000   0.00000
           A6           0.00000   0.00000   0.00000   0.00000   0.00000
           A7           0.00000   0.00000   0.00000   0.00000   0.00000
           D1           0.00000   0.00000   0.00000   0.00000   0.00000
           D2           0.00000   0.00000   0.00000   0.00000   0.00000
           D3           0.00000   0.00000   0.00000   0.00000   0.00000
                          A1        A2        A3        A4        A5
           A1           0.25000
           A2           0.00000   0.16000
           A3           0.00000   0.00000   0.16000
           A4           0.00000   0.00000   0.00000   0.16000
           A5           0.00000   0.00000   0.00000   0.00000   0.16000
           A6           0.00000   0.00000   0.00000   0.00000   0.00000
           A7           0.00000   0.00000   0.00000   0.00000   0.00000
           D1           0.00000   0.00000   0.00000   0.00000   0.00000
           D2           0.00000   0.00000   0.00000   0.00000   0.00000
           D3           0.00000   0.00000   0.00000   0.00000   0.00000
                          A6        A7        D1        D2        D3
           A6           0.16000
           A7           0.00000   0.16000
           D1           0.00000   0.00000   0.00766
           D2           0.00000   0.00000   0.00000   0.00766
           D3           0.00000   0.00000   0.00000   0.00000   0.00766
 ITU=  0
     Eigenvalues ---    0.00766   0.10141   0.10141   0.16000   0.16000
     Eigenvalues ---    0.16000   0.25000   0.35740   0.37230   0.37230
     Eigenvalues ---    0.37230   1.85037
 RFO step:  Lambda=-1.05093186D-01 EMin= 7.65814603D-03
 Linear search not attempted -- first point.
 Iteration  1 RMS(Cart)=  0.08442387 RMS(Int)=  0.00501346
 Iteration  2 RMS(Cart)=  0.00529060 RMS(Int)=  0.00001255
 Iteration  3 RMS(Cart)=  0.00001889 RMS(Int)=  0.00000273
 Iteration  4 RMS(Cart)=  0.00000000 RMS(Int)=  0.00000273
 Variable       Old X    -DE/DX   Delta X   Delta X   Delta X     New X
                                 (Linear)    (Quad)   (Total)
    R1        2.06358   0.43105   0.00000   0.22043   0.22043   2.28401
    R2        2.77790   0.05673   0.00000   0.12267   0.12267   2.90056
    R3        2.02201   0.01842   0.00000   0.03858   0.03858   2.06058
    R4        2.02201   0.01654   0.00000   0.03465   0.03465   2.05666
    R5        2.02201   0.01842   0.00000   0.03858   0.03858   2.06058
    A1        2.09440   0.01987   0.00000   0.05596   0.05596   2.15036
    A2        1.91063   0.00096   0.00000   0.00365   0.00364   1.91428
    A3        1.91063  -0.00066   0.00000  -0.00256  -0.00255   1.90808
    A4        1.91063   0.00096   0.00000   0.00365   0.00364   1.91428
    A5        1.91063  -0.00023   0.00000  -0.00096  -0.00095   1.90968
    A6        1.91063  -0.00079   0.00000  -0.00282  -0.00283   1.90780
    A7        1.91063  -0.00023   0.00000  -0.00096  -0.00095   1.90968
    D1        1.04720   0.00010   0.00000   0.00050   0.00051   1.04771
    D2       -3.14159  -0.00000   0.00000  -0.00000  -0.00000  -3.14159
    D3       -1.04720  -0.00010   0.00000  -0.00050  -0.00051  -1.04770
         Item               Value     Threshold  Converged?
 Maximum Force            0.431046     0.000450     NO 
 RMS     Force            0.112656     0.000300     NO 
 Maximum Displacement     0.231320     0.001800     NO 
 RMS     Displacement     0.089335     0.001200     NO 
 Predicted change in Energy=-5.627686D-02
 GradGradGradGradGradGradGradGradGradGradGradGradGradGradGradGradGradGrad

                          Input orientation:                          
 ---------------------------------------------------------------------
 Center     Atomic      Atomic             Coordinates (Angstroms)
 Number     Number       Type             X           Y           Z
 ---------------------------------------------------------------------
      1          7           0        0.905124    0.485368   -0.206699
      2          7           0       -0.301806    0.421079   -0.210909
      3          6           0       -1.072794   -0.905339   -0.257237
      4          1           0       -0.815234   -1.510362    0.612598
      5          1           0       -2.141754   -0.700947   -0.252095
      6          1           0       -0.812244   -1.450007   -1.165231
 ---------------------------------------------------------------------
                    Distance matrix (angstroms):
                    1          2          3          4          5
     1  N    0.000000
     2  N    1.208647   0.000000
     3  C    2.418425   1.534912   0.000000
     4  H    2.759314   2.161536   1.090414   0.000000
     5  H    3.269995   2.155470   1.088338   1.778344   0.000000
     6  H    2.759314   2.161536   1.090414   1.778856   1.778343
                    6
     6  H    0.000000
 Symmetry turned off by external request.
 Stoichiometry    CH3N2(2)
 Framework group  C1[X(CH3N2)]
 Deg. of freedom    12
 Full point group                 C1      NOp   1
 Rotational constants (GHZ):          72.2790942          10.6138058           9.8287946
 Standard basis: STO-3G (5D, 7F)
    18 basis functions,    54 primitive gaussians,    18 cartesian basis functions
    12 alpha electrons       11 beta electrons
       nuclear repulsion energy        63.7206691730 Hartrees.
 NAtoms=    6 NActive=    6 NUniq=    6 SFac= 1.00D+00 NAtFMM=   60 NAOKFM=F Big=F
 Integral buffers will be    131072 words long.
 Raffenetti 2 integral format.
 Two-electron integral symmetry is turned off.
 One-electron integrals computed using PRISM.
 NBasis=    18 RedAO= T EigKep=  2.24D-01  NBF=    18
 NBsUse=    18 1.00D-06 EigRej= -1.00D+00 NBFU=    18
 Initial guess from the checkpoint file:  "stable_resonance_structure.chk"
 B after Tr=     0.050592    0.052609    0.001871
         Rot=    0.999996    0.000005    0.000101   -0.002963 Ang=   0.34 deg.
 Initial guess <Sx>= 0.0000 <Sy>= 0.0000 <Sz>= 0.5000 <S**2>= 0.7872 S= 0.5184
 ExpMin= 1.69D-01 ExpMax= 9.91D+01 ExpMxC= 9.91D+01 IAcc=2 IRadAn=         4 AccDes= 0.00D+00
 Harris functional with IExCor=  205 and IRadAn=       4 diagonalized for initial guess.
 HarFok:  IExCor=  205 AccDes= 0.00D+00 IRadAn=         4 IDoV= 1 UseB2=F ITyADJ=14
 ICtDFT=  3500011 ScaDFX=  1.000000  1.000000  1.000000  1.000000
 FoFCou: FMM=F IPFlag=           0 FMFlag=      100000 FMFlg1=           0
         NFxFlg=           0 DoJE=T BraDBF=F KetDBF=T FulRan=T
         wScrn=  0.000000 ICntrl=       500 IOpCl=  0 I1Cent=   200000004 NGrid=           0
         NMat0=    1 NMatS0=      1 NMatT0=    0 NMatD0=    1 NMtDS0=    0 NMtDT0=    0
 Symmetry not used in FoFCou.
 Keep R1 and R2 ints in memory in canonical form, NReq=1638735.
 Requested convergence on RMS density matrix=1.00D-08 within 128 cycles.
 Requested convergence on MAX density matrix=1.00D-06.
 Requested convergence on             energy=1.00D-06.
 No special actions if energy rises.
 SCF Done:  E(UHF) =  -146.585235215     A.U. after   19 cycles
            NFock= 19  Conv=0.39D-08     -V/T= 2.0090
 <Sx>= 0.0000 <Sy>= 0.0000 <Sz>= 0.5000 <S**2>= 1.0799 S= 0.6532
 <L.S>= 0.000000000000E+00
 Annihilation of the first spin contaminant:
 S**2 before annihilation     1.0799,   after     0.7667
 Calling FoFJK, ICntrl=      2127 FMM=F ISym2X=0 I1Cent= 0 IOpClX= 1 NMat=1 NMatS=1 NMatT=0.
 -------------------------------------------------------------------
 Center     Atomic                   Forces (Hartrees/Bohr)
 Number     Number              X              Y              Z
 -------------------------------------------------------------------
      1        7           0.115398077   -0.008905393   -0.000108449
      2        7          -0.133464856    0.007939507    0.000045301
      3        6           0.015352325   -0.004250221   -0.000118526
      4        1           0.000444775    0.000143531    0.000046923
      5        1           0.001824747    0.004926248    0.000170327
      6        1           0.000444932    0.000146328   -0.000035575
 -------------------------------------------------------------------
 Cartesian Forces:  Max     0.133464856 RMS     0.041868697

 GradGradGradGradGradGradGradGradGradGradGradGradGradGradGradGradGradGrad
 Berny optimization.
 Using GEDIIS/GDIIS optimizer.
 FormGI is forming the generalized inverse of G from B-inverse, IUseBI=4.
 Internal  Forces:  Max     0.114759949 RMS     0.031124800
 Search for a local minimum.
 Step number   2 out of a maximum of   25
 All quantities printed in internal units (Hartrees-Bohrs-Radians)
 Mixed Optimization -- RFO/linear search
 Update second derivatives using D2CorX and points    1    2
 DE= -5.65D-02 DEPred=-5.63D-02 R= 1.00D+00
 TightC=F SS=  1.41D+00  RLast= 2.66D-01 DXNew= 5.0454D-01 7.9932D-01
 Trust test= 1.00D+00 RLast= 2.66D-01 DXMaxT set to 5.05D-01
 The second derivative matrix:
                          R1        R2        R3        R4        R5
           R1           1.35252
           R2           0.07099   0.39127
           R3           0.00999   0.00830   0.37425
           R4           0.01249   0.00820   0.00195   0.37425
           R5           0.00999   0.00830   0.00195   0.00195   0.37425
           A1           0.14833   0.03729   0.00994   0.00953   0.00994
           A2          -0.00231  -0.00024  -0.00008  -0.00007  -0.00008
           A3           0.02961   0.00606   0.00168   0.00159   0.00168
           A4          -0.00231  -0.00024  -0.00008  -0.00007  -0.00008
           A5          -0.01047  -0.00227  -0.00062  -0.00059  -0.00062
           A6          -0.00412  -0.00106  -0.00028  -0.00027  -0.00028
           A7          -0.01047  -0.00227  -0.00062  -0.00059  -0.00062
           D1          -0.00366  -0.00077  -0.00021  -0.00020  -0.00021
           D2          -0.00000  -0.00000  -0.00000  -0.00000  -0.00000
           D3           0.00366   0.00077   0.00021   0.00020   0.00021
                          A1        A2        A3        A4        A5
           A1           0.28344
           A2          -0.00006   0.16000
           A3           0.00484   0.00001   0.16064
           A4          -0.00006  -0.00000   0.00001   0.16000
           A5          -0.00188  -0.00000  -0.00026  -0.00000   0.16010
           A6          -0.00097   0.00000  -0.00014   0.00000   0.00005
           A7          -0.00188  -0.00000  -0.00026  -0.00000   0.00010
           D1          -0.00062  -0.00000  -0.00008  -0.00000   0.00003
           D2          -0.00000  -0.00000  -0.00000  -0.00000   0.00000
           D3           0.00062   0.00000   0.00008   0.00000  -0.00003
                          A6        A7        D1        D2        D3
           A6           0.16003
           A7           0.00005   0.16010
           D1           0.00002   0.00003   0.00767
           D2           0.00000   0.00000   0.00000   0.00766
           D3          -0.00002  -0.00003  -0.00001  -0.00000   0.00767
 ITU=  1  0
 Use linear search instead of GDIIS.
 Linear search step of   0.533 exceeds DXMaxT=   0.505 but not scaled.
 Quartic linear search produced a step of  1.99980.
 Iteration  1 RMS(Cart)=  0.12838710 RMS(Int)=  0.06173459
 Iteration  2 RMS(Cart)=  0.05439543 RMS(Int)=  0.00884057
 Iteration  3 RMS(Cart)=  0.00778200 RMS(Int)=  0.00001828
 Iteration  4 RMS(Cart)=  0.00001453 RMS(Int)=  0.00001632
 Iteration  5 RMS(Cart)=  0.00000000 RMS(Int)=  0.00001632
 Variable       Old X    -DE/DX   Delta X   Delta X   Delta X     New X
                                 (Linear)    (Quad)   (Total)
    R1        2.28401   0.11476   0.44082   0.00000   0.44082   2.72483
    R2        2.90056  -0.00991   0.24531   0.00000   0.24531   3.14587
    R3        2.06058   0.00006   0.07715   0.00000   0.07715   2.13773
    R4        2.05666  -0.00087   0.06930   0.00000   0.06930   2.12596
    R5        2.06058   0.00006   0.07715   0.00000   0.07715   2.13773
    A1        2.15036  -0.03435   0.11192   0.00000   0.11192   2.26228
    A2        1.91428   0.00092   0.00729   0.00000   0.00727   1.92155
    A3        1.90808  -0.00797  -0.00511   0.00000  -0.00510   1.90298
    A4        1.91428   0.00092   0.00728   0.00000   0.00727   1.92155
    A5        1.90968   0.00268  -0.00191   0.00000  -0.00190   1.90778
    A6        1.90780   0.00079  -0.00566   0.00000  -0.00569   1.90211
    A7        1.90968   0.00268  -0.00191   0.00000  -0.00190   1.90778
    D1        1.04771   0.00106   0.00102   0.00000   0.00105   1.04876
    D2       -3.14159  -0.00000  -0.00000   0.00000  -0.00000  -3.14159
    D3       -1.04770  -0.00106  -0.00102   0.00000  -0.00105  -1.04876
         Item               Value     Threshold  Converged?
 Maximum Force            0.114760     0.000450     NO 
 RMS     Force            0.031125     0.000300     NO 
 Maximum Displacement     0.458763     0.001800     NO 
 RMS     Displacement     0.183972     0.001200     NO 
 Predicted change in Energy=-1.215408D-01
 GradGradGradGradGradGradGradGradGradGradGradGradGradGradGradGradGradGrad

                          Input orientation:                          
 ---------------------------------------------------------------------
 Center     Atomic      Atomic             Coordinates (Angstroms)
 Number     Number       Type             X           Y           Z
 ---------------------------------------------------------------------
      1          7           0        1.147891    0.689443   -0.199362
      2          7           0       -0.277056    0.469083   -0.209238
      3          6           0       -1.129960   -0.959680   -0.259177
      4          1           0       -0.875717   -1.595805    0.641047
      5          1           0       -2.231245   -0.729932   -0.253230
      6          1           0       -0.872621   -1.533317   -1.199612
 ---------------------------------------------------------------------
                    Distance matrix (angstroms):
                    1          2          3          4          5
     1  N    0.000000
     2  N    1.441919   0.000000
     3  C    2.812790   1.664722   0.000000
     4  H    3.166013   2.311957   1.131238   0.000000
     5  H    3.665526   2.293125   1.125010   1.840360   0.000000
     6  H    3.166011   2.311956   1.131238   1.841723   1.840360
                    6
     6  H    0.000000
 Symmetry turned off by external request.
 Stoichiometry    CH3N2(2)
 Framework group  C1[X(CH3N2)]
 Deg. of freedom    12
 Full point group                 C1      NOp   1
 Rotational constants (GHZ):          67.7070136           8.0262010           7.5416338
 Standard basis: STO-3G (5D, 7F)
    18 basis functions,    54 primitive gaussians,    18 cartesian basis functions
    12 alpha electrons       11 beta electrons
       nuclear repulsion energy        56.7036094947 Hartrees.
 NAtoms=    6 NActive=    6 NUniq=    6 SFac= 1.00D+00 NAtFMM=   60 NAOKFM=F Big=F
 Integral buffers will be    131072 words long.
 Raffenetti 2 integral format.
 Two-electron integral symmetry is turned off.
 One-electron integrals computed using PRISM.
 NBasis=    18 RedAO= T EigKep=  2.59D-01  NBF=    18
 NBsUse=    18 1.00D-06 EigRej= -1.00D+00 NBFU=    18
 Initial guess from the checkpoint file:  "stable_resonance_structure.chk"
 B after Tr=     0.105128    0.108516    0.003861
         Rot=    0.999978    0.000011    0.000227   -0.006697 Ang=   0.77 deg.
 Initial guess <Sx>= 0.0000 <Sy>= 0.0000 <Sz>= 0.5000 <S**2>= 1.1354 S= 0.6770
 ExpMin= 1.69D-01 ExpMax= 9.91D+01 ExpMxC= 9.91D+01 IAcc=2 IRadAn=         4 AccDes= 0.00D+00
 Harris functional with IExCor=  205 and IRadAn=       4 diagonalized for initial guess.
 HarFok:  IExCor=  205 AccDes= 0.00D+00 IRadAn=         4 IDoV= 1 UseB2=F ITyADJ=14
 ICtDFT=  3500011 ScaDFX=  1.000000  1.000000  1.000000  1.000000
 FoFCou: FMM=F IPFlag=           0 FMFlag=      100000 FMFlg1=           0
         NFxFlg=           0 DoJE=T BraDBF=F KetDBF=T FulRan=T
         wScrn=  0.000000 ICntrl=       500 IOpCl=  0 I1Cent=   200000004 NGrid=           0
         NMat0=    1 NMatS0=      1 NMatT0=    0 NMatD0=    1 NMtDS0=    0 NMtDT0=    0
 Symmetry not used in FoFCou.
 Keep R1 and R2 ints in memory in canonical form, NReq=1638653.
 Requested convergence on RMS density matrix=1.00D-08 within 128 cycles.
 Requested convergence on MAX density matrix=1.00D-06.
 Requested convergence on             energy=1.00D-06.
 No special actions if energy rises.
 SCF Done:  E(UHF) =  -146.562970981     A.U. after   19 cycles
            NFock= 19  Conv=0.36D-08     -V/T= 2.0093
 <Sx>= 0.0000 <Sy>= 0.0000 <Sz>= 0.5000 <S**2>= 1.6142 S= 0.8654
 <L.S>= 0.000000000000E+00
 Annihilation of the first spin contaminant:
 S**2 before annihilation     1.6142,   after     0.9570
 Calling FoFJK, ICntrl=      2127 FMM=F ISym2X=0 I1Cent= 0 IOpClX= 1 NMat=1 NMatS=1 NMatT=0.
 -------------------------------------------------------------------
 Center     Atomic                   Forces (Hartrees/Bohr)
 Number     Number              X              Y              Z
 -------------------------------------------------------------------
      1        7          -0.059287405   -0.042726080   -0.001550163
      2        7          -0.010046942   -0.005905765   -0.000217366
      3        6           0.048673601    0.005634685    0.000273108
      4        1          -0.005962308    0.020172681   -0.025330257
      5        1           0.032672825    0.004415489    0.000204799
      6        1          -0.006049773    0.018408990    0.026619878
 -------------------------------------------------------------------
 Cartesian Forces:  Max     0.059287405 RMS     0.024871889

 GradGradGradGradGradGradGradGradGradGradGradGradGradGradGradGradGradGrad
 Berny optimization.
 Using GEDIIS/GDIIS optimizer.
 FormGI is forming the generalized inverse of G from B-inverse, IUseBI=4.
 Internal  Forces:  Max     0.090414771 RMS     0.038219062
 Search for a local minimum.
 Step number   3 out of a maximum of   25
 All quantities printed in internal units (Hartrees-Bohrs-Radians)
 Mixed Optimization -- RFO/linear search
 Update second derivatives using D2CorX and points    1    3    2
 The second derivative matrix:
                          R1        R2        R3        R4        R5
           R1           0.44251
           R2          -0.07219   0.37929
           R3          -0.00583   0.01385   0.38010
           R4          -0.00416   0.01284   0.00720   0.37895
           R5          -0.00583   0.01385   0.00780   0.00720   0.38010
           A1           0.03384   0.02830   0.01482   0.01365   0.01482
           A2          -0.00110   0.00024   0.00016   0.00015   0.00016
           A3           0.01627   0.00564   0.00272   0.00250   0.00272
           A4          -0.00110   0.00024   0.00016   0.00015   0.00016
           A5          -0.00564  -0.00228  -0.00112  -0.00103  -0.00112
           A6          -0.00301  -0.00164  -0.00083  -0.00076  -0.00083
           A7          -0.00564  -0.00228  -0.00112  -0.00103  -0.00112
           D1          -0.00225  -0.00084  -0.00041  -0.00037  -0.00041
           D2          -0.00000  -0.00000  -0.00000  -0.00000  -0.00000
           D3           0.00225   0.00084   0.00041   0.00037   0.00041
                          A1        A2        A3        A4        A5
           A1           0.27676
           A2           0.00033   0.16000
           A3           0.00460   0.00007   0.16071
           A4           0.00033   0.00000   0.00007   0.16000
           A5          -0.00193  -0.00003  -0.00031  -0.00003   0.16013
           A6          -0.00146  -0.00002  -0.00024  -0.00002   0.00010
           A7          -0.00193  -0.00003  -0.00031  -0.00003   0.00013
           D1          -0.00070  -0.00001  -0.00011  -0.00001   0.00005
           D2          -0.00000  -0.00000  -0.00000  -0.00000   0.00000
           D3           0.00070   0.00001   0.00011   0.00001  -0.00005
                          A6        A7        D1        D2        D3
           A6           0.16008
           A7           0.00010   0.16013
           D1           0.00004   0.00005   0.00767
           D2           0.00000   0.00000   0.00000   0.00766
           D3          -0.00004  -0.00005  -0.00002  -0.00000   0.00767
 ITU=  0  1  0
 Use linear search instead of GDIIS.
     Eigenvalues ---    0.00766   0.10031   0.10142   0.15911   0.16000
     Eigenvalues ---    0.16006   0.25162   0.34298   0.37230   0.37230
     Eigenvalues ---    0.40590   0.49457
 RFO step:  Lambda=-1.90190589D-02 EMin= 7.65814603D-03
 Quartic linear search produced a step of -0.73033.
 Iteration  1 RMS(Cart)=  0.16777540 RMS(Int)=  0.02393222
 Iteration  2 RMS(Cart)=  0.04329743 RMS(Int)=  0.00071372
 Iteration  3 RMS(Cart)=  0.00054818 RMS(Int)=  0.00018395
 Iteration  4 RMS(Cart)=  0.00000041 RMS(Int)=  0.00018395
 Variable       Old X    -DE/DX   Delta X   Delta X   Delta X     New X
                                 (Linear)    (Quad)   (Total)
    R1        2.72483  -0.06513  -0.32194   0.09880  -0.22315   2.50169
    R2        3.14587  -0.07731  -0.17915  -0.06824  -0.24740   2.89847
    R3        2.13773  -0.03284  -0.05634  -0.02007  -0.07641   2.06132
    R4        2.12596  -0.03108  -0.05061  -0.02084  -0.07145   2.05451
    R5        2.13773  -0.03284  -0.05634  -0.02007  -0.07641   2.06132
    A1        2.26228  -0.09041  -0.08174  -0.18754  -0.26928   1.99300
    A2        1.92155   0.00011  -0.00531   0.00423  -0.00128   1.92027
    A3        1.90298  -0.01682   0.00373  -0.05962  -0.05623   1.84675
    A4        1.92155   0.00011  -0.00531   0.00423  -0.00128   1.92027
    A5        1.90778   0.00649   0.00139   0.01852   0.01957   1.92734
    A6        1.90211   0.00377   0.00416   0.01455   0.01861   1.92072
    A7        1.90778   0.00649   0.00139   0.01852   0.01957   1.92734
    D1        1.04876   0.00241  -0.00077   0.01172   0.01075   1.05951
    D2       -3.14159   0.00000   0.00000  -0.00000   0.00000  -3.14159
    D3       -1.04876  -0.00241   0.00077  -0.01172  -0.01075  -1.05950
         Item               Value     Threshold  Converged?
 Maximum Force            0.090415     0.000450     NO 
 RMS     Force            0.038219     0.000300     NO 
 Maximum Displacement     0.516395     0.001800     NO 
 RMS     Displacement     0.210137     0.001200     NO 
 Predicted change in Energy=-6.159723D-03
 GradGradGradGradGradGradGradGradGradGradGradGradGradGradGradGradGradGrad

                          Input orientation:                          
 ---------------------------------------------------------------------
 Center     Atomic      Atomic             Coordinates (Angstroms)
 Number     Number       Type             X           Y           Z
 ---------------------------------------------------------------------
      1          7           0        0.933703    0.416178   -0.209000
      2          7           0       -0.389177    0.466464   -0.209515
      3          6           0       -1.070329   -0.906966   -0.257288
      4          1           0       -0.788387   -1.494329    0.617564
      5          1           0       -2.139134   -0.707879   -0.252326
      6          1           0       -0.785383   -1.433677   -1.169008
 ---------------------------------------------------------------------
                    Distance matrix (angstroms):
                    1          2          3          4          5
     1  N    0.000000
     2  N    1.323836   0.000000
     3  C    2.401913   1.533806   0.000000
     4  H    2.701637   2.165211   1.090804   0.000000
     5  H    3.272264   2.107906   1.087201   1.788779   0.000000
     6  H    2.701636   2.165211   1.090804   1.787604   1.788779
                    6
     6  H    0.000000
 Symmetry turned off by external request.
 Stoichiometry    CH3N2(2)
 Framework group  C1[X(CH3N2)]
 Deg. of freedom    12
 Full point group                 C1      NOp   1
 Rotational constants (GHZ):          57.6962979          10.8419135           9.6904608
 Standard basis: STO-3G (5D, 7F)
    18 basis functions,    54 primitive gaussians,    18 cartesian basis functions
    12 alpha electrons       11 beta electrons
       nuclear repulsion energy        62.0131387634 Hartrees.
 NAtoms=    6 NActive=    6 NUniq=    6 SFac= 1.00D+00 NAtFMM=   60 NAOKFM=F Big=F
 Integral buffers will be    131072 words long.
 Raffenetti 2 integral format.
 Two-electron integral symmetry is turned off.
 One-electron integrals computed using PRISM.
 NBasis=    18 RedAO= T EigKep=  2.30D-01  NBF=    18
 NBsUse=    18 1.00D-06 EigRej= -1.00D+00 NBFU=    18
 Lowest energy guess from the checkpoint file:  "stable_resonance_structure.chk"
 B after Tr=    -0.025761   -0.016978   -0.000620
         Rot=    0.999989   -0.000008   -0.000157    0.004636 Ang=  -0.53 deg.
 B after Tr=    -0.132989   -0.124089   -0.004436
         Rot=    0.999920   -0.000021   -0.000429    0.012632 Ang=  -1.45 deg.
 Initial guess <Sx>= 0.0000 <Sy>= 0.0000 <Sz>= 0.5000 <S**2>= 1.2305 S= 0.7167
 Keep R1 and R2 ints in memory in canonical form, NReq=1638735.
 Requested convergence on RMS density matrix=1.00D-08 within 128 cycles.
 Requested convergence on MAX density matrix=1.00D-06.
 Requested convergence on             energy=1.00D-06.
 No special actions if energy rises.
 SCF Done:  E(UHF) =  -146.602564647     A.U. after   16 cycles
            NFock= 16  Conv=0.46D-08     -V/T= 2.0088
 <Sx>= 0.0000 <Sy>= 0.0000 <Sz>= 0.5000 <S**2>= 1.3823 S= 0.7776
 <L.S>= 0.000000000000E+00
 Annihilation of the first spin contaminant:
 S**2 before annihilation     1.3823,   after     0.7935
 Calling FoFJK, ICntrl=      2127 FMM=F ISym2X=0 I1Cent= 0 IOpClX= 1 NMat=1 NMatS=1 NMatT=0.
 -------------------------------------------------------------------
 Center     Atomic                   Forces (Hartrees/Bohr)
 Number     Number              X              Y              Z
 -------------------------------------------------------------------
      1        7           0.014522526   -0.007744761   -0.000238536
      2        7          -0.022273926    0.001443572    0.000011586
      3        6           0.010555813    0.010966776    0.000390041
      4        1          -0.000938144   -0.000315421   -0.001200748
      5        1          -0.000924154   -0.003954150   -0.000135781
      6        1          -0.000942115   -0.000396016    0.001173439
 -------------------------------------------------------------------
 Cartesian Forces:  Max     0.022273926 RMS     0.007536400

 GradGradGradGradGradGradGradGradGradGradGradGradGradGradGradGradGradGrad
 Berny optimization.
 Using GEDIIS/GDIIS optimizer.
 FormGI is forming the generalized inverse of G from B-inverse, IUseBI=4.
 Internal  Forces:  Max     0.017991343 RMS     0.006730064
 Search for a local minimum.
 Step number   4 out of a maximum of   25
 All quantities printed in internal units (Hartrees-Bohrs-Radians)
 Mixed Optimization -- RFO/linear search
 Update second derivatives using D2CorX and points    1    3    2    4
 DE= -1.73D-02 DEPred=-6.16D-03 R= 2.81D+00
 TightC=F SS=  1.41D+00  RLast= 2.78D-01 DXNew= 8.4853D-01 8.3277D-01
 Trust test= 2.81D+00 RLast= 2.78D-01 DXMaxT set to 8.33D-01
 The second derivative matrix:
                          R1        R2        R3        R4        R5
           R1           0.51299
           R2          -0.01979   0.33233
           R3           0.00785   0.00392   0.37910
           R4           0.00445   0.00452   0.00680   0.37926
           R5           0.00785   0.00392   0.00680   0.00680   0.37910
           A1           0.07831  -0.03094   0.00245   0.00402   0.00245
           A2          -0.00127   0.00102   0.00039   0.00035   0.00039
           A3          -0.00586   0.00730   0.00562   0.00671   0.00562
           A4          -0.00127   0.00102   0.00039   0.00035   0.00039
           A5           0.00415  -0.00429  -0.00266  -0.00305  -0.00266
           A6          -0.00030  -0.00099  -0.00115  -0.00134  -0.00115
           A7           0.00415  -0.00429  -0.00266  -0.00305  -0.00266
           D1           0.00346  -0.00351  -0.00155  -0.00167  -0.00155
           D2          -0.00000  -0.00000  -0.00000  -0.00000  -0.00000
           D3          -0.00346   0.00351   0.00155   0.00167   0.00155
                          A1        A2        A3        A4        A5
           A1           0.20594
           A2           0.00123   0.16000
           A3           0.01163   0.00008   0.17188
           A4           0.00123  -0.00000   0.00008   0.16000
           A5          -0.00639  -0.00002  -0.00486  -0.00002   0.16195
           A6          -0.00150  -0.00004  -0.00223  -0.00004   0.00094
           A7          -0.00639  -0.00002  -0.00486  -0.00002   0.00195
           D1          -0.00486   0.00002  -0.00216   0.00002   0.00083
           D2          -0.00000  -0.00000  -0.00000  -0.00000   0.00000
           D3           0.00486  -0.00002   0.00216  -0.00002  -0.00083
                          A6        A7        D1        D2        D3
           A6           0.16042
           A7           0.00094   0.16195
           D1           0.00045   0.00083   0.00795
           D2           0.00000   0.00000   0.00000   0.00766
           D3          -0.00045  -0.00083  -0.00029  -0.00000   0.00795
 ITU=  1  0  1  0
 Use linear search instead of GDIIS.
     Eigenvalues ---    0.00766   0.10127   0.10505   0.15921   0.16000
     Eigenvalues ---    0.16160   0.19702   0.33224   0.37230   0.37239
     Eigenvalues ---    0.39398   0.53631
 RFO step:  Lambda=-2.69947759D-03 EMin= 7.65814603D-03
 Quartic linear search produced a step of  0.30643.
 Iteration  1 RMS(Cart)=  0.07195628 RMS(Int)=  0.00376990
 Iteration  2 RMS(Cart)=  0.00534730 RMS(Int)=  0.00014986
 Iteration  3 RMS(Cart)=  0.00001389 RMS(Int)=  0.00014932
 Iteration  4 RMS(Cart)=  0.00000000 RMS(Int)=  0.00014932
 Variable       Old X    -DE/DX   Delta X   Delta X   Delta X     New X
                                 (Linear)    (Quad)   (Total)
    R1        2.50169   0.01481   0.06670  -0.00470   0.06200   2.56369
    R2        2.89847  -0.00909  -0.00064  -0.03739  -0.03803   2.86044
    R3        2.06132  -0.00104   0.00023  -0.00370  -0.00347   2.05785
    R4        2.05451   0.00018  -0.00066   0.00127   0.00061   2.05512
    R5        2.06132  -0.00104   0.00023  -0.00370  -0.00347   2.05785
    A1        1.99300  -0.01799  -0.04822  -0.09268  -0.14089   1.85210
    A2        1.92027   0.00044   0.00184   0.00217   0.00382   1.92409
    A3        1.84675   0.00595  -0.01879   0.05762   0.03856   1.88531
    A4        1.92027   0.00044   0.00184   0.00217   0.00382   1.92409
    A5        1.92734  -0.00247   0.00541  -0.02051  -0.01537   1.91198
    A6        1.92072  -0.00164   0.00396  -0.01830  -0.01445   1.90627
    A7        1.92734  -0.00247   0.00541  -0.02051  -0.01537   1.91198
    D1        1.05951  -0.00073   0.00362  -0.01000  -0.00653   1.05298
    D2       -3.14159  -0.00000  -0.00000  -0.00000  -0.00000  -3.14159
    D3       -1.05950   0.00073  -0.00362   0.01000   0.00653  -1.05298
         Item               Value     Threshold  Converged?
 Maximum Force            0.017991     0.000450     NO 
 RMS     Force            0.006730     0.000300     NO 
 Maximum Displacement     0.206787     0.001800     NO 
 RMS     Displacement     0.075639     0.001200     NO 
 Predicted change in Energy=-1.630721D-03
 GradGradGradGradGradGradGradGradGradGradGradGradGradGradGradGradGradGrad

                          Input orientation:                          
 ---------------------------------------------------------------------
 Center     Atomic      Atomic             Coordinates (Angstroms)
 Number     Number       Type             X           Y           Z
 ---------------------------------------------------------------------
      1          7           0        0.909139    0.306752   -0.212756
      2          7           0       -0.433038    0.504301   -0.208304
      3          6           0       -1.060566   -0.872344   -0.256096
      4          1           0       -0.758034   -1.454696    0.612921
      5          1           0       -2.141159   -0.749766   -0.253752
      6          1           0       -0.755049   -1.394453   -1.161585
 ---------------------------------------------------------------------
                    Distance matrix (angstroms):
                    1          2          3          4          5
     1  N    0.000000
     2  N    1.356645   0.000000
     3  C    2.296058   1.513680   0.000000
     4  H    2.562012   2.148884   1.088967   0.000000
     5  H    3.228347   2.119534   1.087525   1.777943   0.000000
     6  H    2.562011   2.148885   1.088967   1.775531   1.777943
                    6
     6  H    0.000000
 Symmetry turned off by external request.
 Stoichiometry    CH3N2(2)
 Framework group  C1[X(CH3N2)]
 Deg. of freedom    12
 Full point group                 C1      NOp   1
 Rotational constants (GHZ):          50.2285187          11.7809464          10.1517580
 Standard basis: STO-3G (5D, 7F)
    18 basis functions,    54 primitive gaussians,    18 cartesian basis functions
    12 alpha electrons       11 beta electrons
       nuclear repulsion energy        62.3544785193 Hartrees.
 NAtoms=    6 NActive=    6 NUniq=    6 SFac= 1.00D+00 NAtFMM=   60 NAOKFM=F Big=F
 Integral buffers will be    131072 words long.
 Raffenetti 2 integral format.
 Two-electron integral symmetry is turned off.
 One-electron integrals computed using PRISM.
 NBasis=    18 RedAO= T EigKep=  2.28D-01  NBF=    18
 NBsUse=    18 1.00D-06 EigRej= -1.00D+00 NBFU=    18
 Initial guess from the checkpoint file:  "stable_resonance_structure.chk"
 B after Tr=    -0.024004   -0.033184   -0.001167
         Rot=    0.999933   -0.000019   -0.000393    0.011579 Ang=  -1.33 deg.
 Initial guess <Sx>= 0.0000 <Sy>= 0.0000 <Sz>= 0.5000 <S**2>= 1.3935 S= 0.7820
 ExpMin= 1.69D-01 ExpMax= 9.91D+01 ExpMxC= 9.91D+01 IAcc=2 IRadAn=         4 AccDes= 0.00D+00
 Harris functional with IExCor=  205 and IRadAn=       4 diagonalized for initial guess.
 HarFok:  IExCor=  205 AccDes= 0.00D+00 IRadAn=         4 IDoV= 1 UseB2=F ITyADJ=14
 ICtDFT=  3500011 ScaDFX=  1.000000  1.000000  1.000000  1.000000
 FoFCou: FMM=F IPFlag=           0 FMFlag=      100000 FMFlg1=           0
         NFxFlg=           0 DoJE=T BraDBF=F KetDBF=T FulRan=T
         wScrn=  0.000000 ICntrl=       500 IOpCl=  0 I1Cent=   200000004 NGrid=           0
         NMat0=    1 NMatS0=      1 NMatT0=    0 NMatD0=    1 NMtDS0=    0 NMtDT0=    0
 Symmetry not used in FoFCou.
 Keep R1 and R2 ints in memory in canonical form, NReq=1638777.
 Requested convergence on RMS density matrix=1.00D-08 within 128 cycles.
 Requested convergence on MAX density matrix=1.00D-06.
 Requested convergence on             energy=1.00D-06.
 No special actions if energy rises.
 SCF Done:  E(UHF) =  -146.603385947     A.U. after   14 cycles
            NFock= 14  Conv=0.96D-08     -V/T= 2.0084
 <Sx>= 0.0000 <Sy>= 0.0000 <Sz>= 0.5000 <S**2>= 1.4465 S= 0.8025
 <L.S>= 0.000000000000E+00
 Annihilation of the first spin contaminant:
 S**2 before annihilation     1.4465,   after     0.7995
 Calling FoFJK, ICntrl=      2127 FMM=F ISym2X=0 I1Cent= 0 IOpClX= 1 NMat=1 NMatS=1 NMatT=0.
 -------------------------------------------------------------------
 Center     Atomic                   Forces (Hartrees/Bohr)
 Number     Number              X              Y              Z
 -------------------------------------------------------------------
      1        7           0.007150814    0.007173499    0.000255555
      2        7           0.003947830   -0.002343380   -0.000072923
      3        6          -0.010360776   -0.002653284   -0.000107488
      4        1          -0.000180993   -0.000374042    0.000449465
      5        1          -0.000377433   -0.001460119   -0.000050208
      6        1          -0.000179442   -0.000342674   -0.000474401
 -------------------------------------------------------------------
 Cartesian Forces:  Max     0.010360776 RMS     0.003660328

 GradGradGradGradGradGradGradGradGradGradGradGradGradGradGradGradGradGrad
 Berny optimization.
 Using GEDIIS/GDIIS optimizer.
 FormGI is forming the generalized inverse of G from B-inverse, IUseBI=4.
 Internal  Forces:  Max     0.020876034 RMS     0.006110649
 Search for a local minimum.
 Step number   5 out of a maximum of   25
 All quantities printed in internal units (Hartrees-Bohrs-Radians)
 Mixed Optimization -- RFO/linear search
 Update second derivatives using D2CorX and points    1    3    2    4    5
 DE= -8.21D-04 DEPred=-1.63D-03 R= 5.04D-01
 TightC=F SS=  1.41D+00  RLast= 1.66D-01 DXNew= 1.4005D+00 4.9702D-01
 Trust test= 5.04D-01 RLast= 1.66D-01 DXMaxT set to 8.33D-01
 The second derivative matrix:
                          R1        R2        R3        R4        R5
           R1           0.38871
           R2          -0.01951   0.35697
           R3           0.00133   0.00127   0.37555
           R4          -0.00123   0.00127   0.00362   0.37651
           R5           0.00133   0.00127   0.00325   0.00362   0.37555
           A1           0.11193   0.02762   0.00450   0.00387   0.00450
           A2          -0.00238   0.00010   0.00020   0.00021   0.00020
           A3          -0.00416   0.01082   0.00648   0.00770   0.00648
           A4          -0.00238   0.00010   0.00020   0.00021   0.00020
           A5           0.00248  -0.00448  -0.00273  -0.00324  -0.00273
           A6           0.00353  -0.00253  -0.00148  -0.00166  -0.00148
           A7           0.00248  -0.00448  -0.00273  -0.00324  -0.00273
           D1          -0.00167  -0.00009  -0.00086  -0.00121  -0.00086
           D2          -0.00000   0.00000  -0.00000  -0.00000  -0.00000
           D3           0.00167   0.00009   0.00086   0.00121   0.00086
                          A1        A2        A3        A4        A5
           A1           0.32382
           A2          -0.00022   0.16001
           A3           0.01719   0.00002   0.17374
           A4          -0.00022   0.00001   0.00002   0.16001
           A5          -0.00632  -0.00002  -0.00556  -0.00002   0.16222
           A6          -0.00484   0.00001  -0.00255   0.00001   0.00111
           A7          -0.00632  -0.00002  -0.00556  -0.00002   0.00222
           D1           0.00218  -0.00006  -0.00241  -0.00006   0.00088
           D2           0.00000  -0.00000  -0.00000  -0.00000   0.00000
           D3          -0.00218   0.00006   0.00241   0.00006  -0.00088
                          A6        A7        D1        D2        D3
           A6           0.16030
           A7           0.00111   0.16222
           D1           0.00072   0.00088   0.00779
           D2           0.00000   0.00000   0.00000   0.00766
           D3          -0.00072  -0.00088  -0.00013  -0.00000   0.00779
 ITU=  1  1  0  1  0
 Use linear search instead of GDIIS.
     Eigenvalues ---    0.00766   0.10113   0.10249   0.15978   0.16000
     Eigenvalues ---    0.17223   0.23419   0.36626   0.37230   0.37235
     Eigenvalues ---    0.38502   0.47340
 RFO step:  Lambda=-3.97238989D-04 EMin= 7.65814603D-03
 Quartic linear search produced a step of -0.37309.
 Iteration  1 RMS(Cart)=  0.03270898 RMS(Int)=  0.00060108
 Iteration  2 RMS(Cart)=  0.00049049 RMS(Int)=  0.00003792
 Iteration  3 RMS(Cart)=  0.00000003 RMS(Int)=  0.00003792
 Variable       Old X    -DE/DX   Delta X   Delta X   Delta X     New X
                                 (Linear)    (Quad)   (Total)
    R1        2.56369   0.00603  -0.02313   0.02400   0.00087   2.56455
    R2        2.86044   0.00900   0.01419   0.00542   0.01961   2.88005
    R3        2.05785   0.00051   0.00129  -0.00096   0.00034   2.05819
    R4        2.05512   0.00021  -0.00023  -0.00008  -0.00031   2.05482
    R5        2.05785   0.00051   0.00129  -0.00096   0.00034   2.05819
    A1        1.85210   0.02088   0.05257   0.00615   0.05871   1.91082
    A2        1.92409  -0.00005  -0.00143   0.00087  -0.00052   1.92357
    A3        1.88531   0.00214  -0.01438   0.02168   0.00736   1.89267
    A4        1.92409  -0.00005  -0.00143   0.00087  -0.00052   1.92357
    A5        1.91198  -0.00093   0.00573  -0.00839  -0.00258   1.90939
    A6        1.90627  -0.00019   0.00539  -0.00656  -0.00115   1.90512
    A7        1.91198  -0.00093   0.00573  -0.00839  -0.00258   1.90939
    D1        1.05298  -0.00015   0.00243  -0.00353  -0.00105   1.05193
    D2       -3.14159   0.00000   0.00000   0.00000   0.00000  -3.14159
    D3       -1.05298   0.00015  -0.00243   0.00353   0.00105  -1.05192
         Item               Value     Threshold  Converged?
 Maximum Force            0.020876     0.000450     NO 
 RMS     Force            0.006111     0.000300     NO 
 Maximum Displacement     0.087518     0.001800     NO 
 RMS     Displacement     0.032523     0.001200     NO 
 Predicted change in Energy=-7.468102D-04
 GradGradGradGradGradGradGradGradGradGradGradGradGradGradGradGradGradGrad

                          Input orientation:                          
 ---------------------------------------------------------------------
 Center     Atomic      Atomic             Coordinates (Angstroms)
 Number     Number       Type             X           Y           Z
 ---------------------------------------------------------------------
      1          7           0        0.936089    0.353064   -0.211138
      2          7           0       -0.413669    0.494052   -0.208620
      3          6           0       -1.068472   -0.881340   -0.256415
      4          1           0       -0.773960   -1.468716    0.612200
      5          1           0       -2.147720   -0.748780   -0.253729
      6          1           0       -0.770977   -1.408488   -1.161871
 ---------------------------------------------------------------------
                    Distance matrix (angstroms):
                    1          2          3          4          5
     1  N    0.000000
     2  N    1.357104   0.000000
     3  C    2.354585   1.524058   0.000000
     4  H    2.630787   2.157780   1.089147   0.000000
     5  H    3.275020   2.133917   1.087361   1.776332   0.000000
     6  H    2.630786   2.157780   1.089147   1.775096   1.776332
                    6
     6  H    0.000000
 Symmetry turned off by external request.
 Stoichiometry    CH3N2(2)
 Framework group  C1[X(CH3N2)]
 Deg. of freedom    12
 Full point group                 C1      NOp   1
 Rotational constants (GHZ):          52.7965534          11.2413489           9.8411363
 Standard basis: STO-3G (5D, 7F)
    18 basis functions,    54 primitive gaussians,    18 cartesian basis functions
    12 alpha electrons       11 beta electrons
       nuclear repulsion energy        61.8895740187 Hartrees.
 NAtoms=    6 NActive=    6 NUniq=    6 SFac= 1.00D+00 NAtFMM=   60 NAOKFM=F Big=F
 Integral buffers will be    131072 words long.
 Raffenetti 2 integral format.
 Two-electron integral symmetry is turned off.
 One-electron integrals computed using PRISM.
 NBasis=    18 RedAO= T EigKep=  2.29D-01  NBF=    18
 NBsUse=    18 1.00D-06 EigRej= -1.00D+00 NBFU=    18
 Initial guess from the checkpoint file:  "stable_resonance_structure.chk"
 B after Tr=     0.017690    0.017858    0.000636
         Rot=    0.999994    0.000006    0.000117   -0.003438 Ang=   0.39 deg.
 Initial guess <Sx>= 0.0000 <Sy>= 0.0000 <Sz>= 0.5000 <S**2>= 1.4461 S= 0.8023
 ExpMin= 1.69D-01 ExpMax= 9.91D+01 ExpMxC= 9.91D+01 IAcc=2 IRadAn=         4 AccDes= 0.00D+00
 Harris functional with IExCor=  205 and IRadAn=       4 diagonalized for initial guess.
 HarFok:  IExCor=  205 AccDes= 0.00D+00 IRadAn=         4 IDoV= 1 UseB2=F ITyADJ=14
 ICtDFT=  3500011 ScaDFX=  1.000000  1.000000  1.000000  1.000000
 FoFCou: FMM=F IPFlag=           0 FMFlag=      100000 FMFlg1=           0
         NFxFlg=           0 DoJE=T BraDBF=F KetDBF=T FulRan=T
         wScrn=  0.000000 ICntrl=       500 IOpCl=  0 I1Cent=   200000004 NGrid=           0
         NMat0=    1 NMatS0=      1 NMatT0=    0 NMatD0=    1 NMtDS0=    0 NMtDT0=    0
 Symmetry not used in FoFCou.
 Keep R1 and R2 ints in memory in canonical form, NReq=1638777.
 Requested convergence on RMS density matrix=1.00D-08 within 128 cycles.
 Requested convergence on MAX density matrix=1.00D-06.
 Requested convergence on             energy=1.00D-06.
 No special actions if energy rises.
 SCF Done:  E(UHF) =  -146.604039551     A.U. after   14 cycles
            NFock= 14  Conv=0.30D-08     -V/T= 2.0086
 <Sx>= 0.0000 <Sy>= 0.0000 <Sz>= 0.5000 <S**2>= 1.4458 S= 0.8022
 <L.S>= 0.000000000000E+00
 Annihilation of the first spin contaminant:
 S**2 before annihilation     1.4458,   after     0.8014
 Calling FoFJK, ICntrl=      2127 FMM=F ISym2X=0 I1Cent= 0 IOpClX= 1 NMat=1 NMatS=1 NMatT=0.
 -------------------------------------------------------------------
 Center     Atomic                   Forces (Hartrees/Bohr)
 Number     Number              X              Y              Z
 -------------------------------------------------------------------
      1        7          -0.000565750   -0.000070325   -0.000003339
      2        7          -0.001246601   -0.002119101   -0.000074036
      3        6           0.001408736    0.001595819    0.000056547
      4        1           0.000229441   -0.000202869    0.000529511
      5        1          -0.000057065    0.000962994    0.000032594
      6        1           0.000231239   -0.000166519   -0.000541277
 -------------------------------------------------------------------
 Cartesian Forces:  Max     0.002119101 RMS     0.000836312

 GradGradGradGradGradGradGradGradGradGradGradGradGradGradGradGradGradGrad
 Berny optimization.
 Using GEDIIS/GDIIS optimizer.
 FormGI is forming the generalized inverse of G from B-inverse, IUseBI=4.
 Internal  Forces:  Max     0.002756947 RMS     0.000876931
 Search for a local minimum.
 Step number   6 out of a maximum of   25
 All quantities printed in internal units (Hartrees-Bohrs-Radians)
 Mixed Optimization -- En-DIIS/RFO-DIIS
 Update second derivatives using D2CorX and points    1    3    2    4    5
                                                      6
 DE= -6.54D-04 DEPred=-7.47D-04 R= 8.75D-01
 TightC=F SS=  1.41D+00  RLast= 6.25D-02 DXNew= 1.4005D+00 1.8745D-01
 Trust test= 8.75D-01 RLast= 6.25D-02 DXMaxT set to 8.33D-01
 The second derivative matrix:
                          R1        R2        R3        R4        R5
           R1           0.36330
           R2           0.00171   0.39286
           R3          -0.00571   0.00053   0.38059
           R4          -0.00523   0.00331   0.00847   0.38139
           R5          -0.00571   0.00053   0.00829   0.00847   0.38059
           A1           0.10686   0.06446  -0.00475  -0.00012  -0.00475
           A2          -0.00278  -0.00004   0.00032   0.00034   0.00032
           A3          -0.00500   0.02642   0.00567   0.00919   0.00567
           A4          -0.00278  -0.00004   0.00032   0.00034   0.00032
           A5           0.00139  -0.01140  -0.00254  -0.00402  -0.00254
           A6           0.00771  -0.00365  -0.00128  -0.00179  -0.00128
           A7           0.00139  -0.01140  -0.00254  -0.00402  -0.00254
           D1          -0.00665  -0.00445  -0.00149  -0.00230  -0.00149
           D2          -0.00000  -0.00000  -0.00000  -0.00000  -0.00000
           D3           0.00665   0.00445   0.00149   0.00230   0.00149
                          A1        A2        A3        A4        A5
           A1           0.33340
           A2          -0.00082   0.16001
           A3           0.02797   0.00000   0.18417
           A4          -0.00082   0.00001   0.00000   0.16001
           A5          -0.01171  -0.00002  -0.01050  -0.00002   0.16445
           A6          -0.00302   0.00002  -0.00275   0.00002   0.00143
           A7          -0.01171  -0.00002  -0.01050  -0.00002   0.00445
           D1          -0.00350  -0.00010  -0.00664  -0.00010   0.00253
           D2           0.00000  -0.00000  -0.00000  -0.00000   0.00000
           D3           0.00350   0.00010   0.00664   0.00010  -0.00253
                          A6        A7        D1        D2        D3
           A6           0.15978
           A7           0.00143   0.16445
           D1           0.00165   0.00253   0.00823
           D2           0.00000   0.00000   0.00000   0.00766
           D3          -0.00165  -0.00253  -0.00057  -0.00000   0.00823
 ITU=  1  1  1  0  1  0
 Use linear search instead of GDIIS.
     Eigenvalues ---    0.00766   0.10178   0.10205   0.15959   0.16000
     Eigenvalues ---    0.17895   0.23349   0.37230   0.37235   0.38047
     Eigenvalues ---    0.40401   0.48516
 RFO step:  Lambda=-2.93996744D-05 EMin= 7.65814603D-03
 Quartic linear search produced a step of -0.06167.
 Iteration  1 RMS(Cart)=  0.00390785 RMS(Int)=  0.00000994
 Iteration  2 RMS(Cart)=  0.00000900 RMS(Int)=  0.00000212
 Iteration  3 RMS(Cart)=  0.00000000 RMS(Int)=  0.00000212
 Variable       Old X    -DE/DX   Delta X   Delta X   Delta X     New X
                                 (Linear)    (Quad)   (Total)
    R1        2.56455  -0.00056  -0.00005  -0.00192  -0.00197   2.56258
    R2        2.88005  -0.00276  -0.00121  -0.00547  -0.00668   2.87337
    R3        2.05819   0.00059  -0.00002   0.00168   0.00166   2.05985
    R4        2.05482   0.00017   0.00002   0.00064   0.00066   2.05548
    R5        2.05819   0.00059  -0.00002   0.00168   0.00166   2.05985
    A1        1.91082  -0.00033  -0.00362   0.00514   0.00152   1.91234
    A2        1.92357   0.00008   0.00003   0.00062   0.00065   1.92422
    A3        1.89267  -0.00144  -0.00045  -0.00681  -0.00727   1.88540
    A4        1.92357   0.00008   0.00003   0.00062   0.00065   1.92422
    A5        1.90939   0.00050   0.00016   0.00175   0.00191   1.91130
    A6        1.90512   0.00027   0.00007   0.00205   0.00212   1.90724
    A7        1.90939   0.00050   0.00016   0.00175   0.00191   1.91130
    D1        1.05193   0.00022   0.00006   0.00168   0.00174   1.05367
    D2       -3.14159   0.00000  -0.00000   0.00000   0.00000  -3.14159
    D3       -1.05192  -0.00022  -0.00006  -0.00168  -0.00174  -1.05366
         Item               Value     Threshold  Converged?
 Maximum Force            0.002757     0.000450     NO 
 RMS     Force            0.000877     0.000300     NO 
 Maximum Displacement     0.010005     0.001800     NO 
 RMS     Displacement     0.003911     0.001200     NO 
 Predicted change in Energy=-1.741519D-05
 GradGradGradGradGradGradGradGradGradGradGradGradGradGradGradGradGradGrad

                          Input orientation:                          
 ---------------------------------------------------------------------
 Center     Atomic      Atomic             Coordinates (Angstroms)
 Number     Number       Type             X           Y           Z
 ---------------------------------------------------------------------
      1          7           0        0.933399    0.353915   -0.211114
      2          7           0       -0.415734    0.490785   -0.208734
      3          6           0       -1.067021   -0.882362   -0.256447
      4          1           0       -0.773257   -1.469691    0.613554
      5          1           0       -2.145826   -0.743486   -0.253546
      6          1           0       -0.770268   -1.409369   -1.163285
 ---------------------------------------------------------------------
                    Distance matrix (angstroms):
                    1          2          3          4          5
     1  N    0.000000
     2  N    1.356060   0.000000
     3  C    2.352046   1.520521   0.000000
     4  H    2.630265   2.155794   1.090025   0.000000
     5  H    3.269208   2.125713   1.087711   1.778535   0.000000
     6  H    2.630263   2.155794   1.090025   1.777865   1.778535
                    6
     6  H    0.000000
 Symmetry turned off by external request.
 Stoichiometry    CH3N2(2)
 Framework group  C1[X(CH3N2)]
 Deg. of freedom    12
 Full point group                 C1      NOp   1
 Rotational constants (GHZ):          52.9238054          11.2671904           9.8672757
 Standard basis: STO-3G (5D, 7F)
    18 basis functions,    54 primitive gaussians,    18 cartesian basis functions
    12 alpha electrons       11 beta electrons
       nuclear repulsion energy        61.9539820777 Hartrees.
 NAtoms=    6 NActive=    6 NUniq=    6 SFac= 1.00D+00 NAtFMM=   60 NAOKFM=F Big=F
 Integral buffers will be    131072 words long.
 Raffenetti 2 integral format.
 Two-electron integral symmetry is turned off.
 One-electron integrals computed using PRISM.
 NBasis=    18 RedAO= T EigKep=  2.29D-01  NBF=    18
 NBsUse=    18 1.00D-06 EigRej= -1.00D+00 NBFU=    18
 Initial guess from the checkpoint file:  "stable_resonance_structure.chk"
 B after Tr=    -0.002045   -0.001007   -0.000038
         Rot=    1.000000    0.000001    0.000019   -0.000569 Ang=   0.07 deg.
 Initial guess <Sx>= 0.0000 <Sy>= 0.0000 <Sz>= 0.5000 <S**2>= 1.4455 S= 0.8021
 Keep R1 and R2 ints in memory in canonical form, NReq=1638777.
 Requested convergence on RMS density matrix=1.00D-08 within 128 cycles.
 Requested convergence on MAX density matrix=1.00D-06.
 Requested convergence on             energy=1.00D-06.
 No special actions if energy rises.
 SCF Done:  E(UHF) =  -146.604055742     A.U. after   11 cycles
            NFock= 11  Conv=0.77D-08     -V/T= 2.0086
 <Sx>= 0.0000 <Sy>= 0.0000 <Sz>= 0.5000 <S**2>= 1.4437 S= 0.8014
 <L.S>= 0.000000000000E+00
 Annihilation of the first spin contaminant:
 S**2 before annihilation     1.4437,   after     0.8004
 Calling FoFJK, ICntrl=      2127 FMM=F ISym2X=0 I1Cent= 0 IOpClX= 1 NMat=1 NMatS=1 NMatT=0.
 -------------------------------------------------------------------
 Center     Atomic                   Forces (Hartrees/Bohr)
 Number     Number              X              Y              Z
 -------------------------------------------------------------------
      1        7           0.000283933   -0.000009405    0.000000156
      2        7          -0.000261394   -0.000088532   -0.000003442
      3        6           0.000067268    0.000197498    0.000006816
      4        1          -0.000082446    0.000030601   -0.000215121
      5        1           0.000075811   -0.000146109   -0.000004833
      6        1          -0.000083171    0.000015948    0.000216424
 -------------------------------------------------------------------
 Cartesian Forces:  Max     0.000283933 RMS     0.000136545

 GradGradGradGradGradGradGradGradGradGradGradGradGradGradGradGradGradGrad
 Berny optimization.
 Using GEDIIS/GDIIS optimizer.
 FormGI is forming the generalized inverse of G from B-inverse, IUseBI=4.
 Internal  Forces:  Max     0.000283432 RMS     0.000134114
 Search for a local minimum.
 Step number   7 out of a maximum of   25
 All quantities printed in internal units (Hartrees-Bohrs-Radians)
 Mixed Optimization -- En-DIIS/RFO-DIIS
 Swapping is turned off.
 Update second derivatives using D2CorX and points    1    3    2    4    5
                                                      6    7
 DE= -1.62D-05 DEPred=-1.74D-05 R= 9.30D-01
 TightC=F SS=  1.41D+00  RLast= 1.13D-02 DXNew= 1.4005D+00 3.3990D-02
 Trust test= 9.30D-01 RLast= 1.13D-02 DXMaxT set to 8.33D-01
 The second derivative matrix:
                          R1        R2        R3        R4        R5
           R1           0.37003
           R2           0.02445   0.36199
           R3          -0.01480  -0.00718   0.39433
           R4          -0.00968  -0.00033   0.01710   0.38777
           R5          -0.01480  -0.00718   0.02202   0.01710   0.39433
           A1           0.10452   0.06501  -0.00345   0.00043  -0.00345
           A2          -0.00282   0.00782  -0.00139  -0.00011  -0.00139
           A3           0.00344   0.02393  -0.00191   0.00690  -0.00191
           A4          -0.00282   0.00782  -0.00139  -0.00011  -0.00139
           A5          -0.00133  -0.01770   0.00229  -0.00249   0.00229
           A6           0.00456  -0.00524   0.00017  -0.00169   0.00017
           A7          -0.00133  -0.01770   0.00229  -0.00249   0.00229
           D1          -0.00719  -0.01229   0.00247  -0.00103   0.00247
           D2          -0.00000  -0.00000   0.00000  -0.00000   0.00000
           D3           0.00719   0.01229  -0.00247   0.00103  -0.00247
                          A1        A2        A3        A4        A5
           A1           0.33114
           A2          -0.00125   0.15963
           A3           0.02446   0.00439   0.18909
           A4          -0.00125  -0.00037   0.00439   0.15963
           A5          -0.01011  -0.00128  -0.01727  -0.00128   0.16845
           A6          -0.00173  -0.00102  -0.00322  -0.00102   0.00281
           A7          -0.01011  -0.00128  -0.01727  -0.00128   0.00845
           D1          -0.00284  -0.00042  -0.01504  -0.00042   0.00596
           D2           0.00000  -0.00000  -0.00000  -0.00000   0.00000
           D3           0.00284   0.00042   0.01504   0.00042  -0.00596
                          A6        A7        D1        D2        D3
           A6           0.15970
           A7           0.00281   0.16845
           D1           0.00382   0.00596   0.00980
           D2           0.00000   0.00000   0.00000   0.00766
           D3          -0.00382  -0.00596  -0.00214  -0.00000   0.00980
 ITU=  1  1  1  1  0  1  0
     Eigenvalues ---    0.00766   0.10244   0.10250   0.15807   0.16000
     Eigenvalues ---    0.19911   0.23556   0.34697   0.37230   0.37463
     Eigenvalues ---    0.42487   0.49886
 En-DIIS/RFO-DIIS/Sim-DIIS IScMMF=       -3 using points:     7    6
 RFO step:  Lambda=-9.08031522D-07.
 DidBck=F Rises=F RFO-DIIS coefs:    0.91602    0.08398
 Iteration  1 RMS(Cart)=  0.00050754 RMS(Int)=  0.00000028
 Iteration  2 RMS(Cart)=  0.00000025 RMS(Int)=  0.00000006
 Variable       Old X    -DE/DX   Delta X   Delta X   Delta X     New X
                                 (Linear)    (Quad)   (Total)
    R1        2.56258   0.00028   0.00017   0.00062   0.00078   2.56336
    R2        2.87337  -0.00008   0.00056  -0.00098  -0.00042   2.87295
    R3        2.05985  -0.00021  -0.00014  -0.00032  -0.00046   2.05939
    R4        2.05548  -0.00009  -0.00006  -0.00015  -0.00021   2.05527
    R5        2.05985  -0.00021  -0.00014  -0.00032  -0.00046   2.05939
    A1        1.91234   0.00005  -0.00013   0.00001  -0.00012   1.91222
    A2        1.92422   0.00007  -0.00005   0.00050   0.00045   1.92467
    A3        1.88540   0.00018   0.00061   0.00026   0.00087   1.88627
    A4        1.92422   0.00007  -0.00005   0.00050   0.00045   1.92467
    A5        1.91130  -0.00010  -0.00016  -0.00028  -0.00044   1.91086
    A6        1.90724  -0.00013  -0.00018  -0.00070  -0.00087   1.90637
    A7        1.91130  -0.00010  -0.00016  -0.00028  -0.00044   1.91086
    D1        1.05367  -0.00004  -0.00015  -0.00011  -0.00026   1.05341
    D2       -3.14159   0.00000  -0.00000   0.00000   0.00000  -3.14159
    D3       -1.05366   0.00004   0.00015   0.00011   0.00026  -1.05341
         Item               Value     Threshold  Converged?
 Maximum Force            0.000283     0.000450     YES
 RMS     Force            0.000134     0.000300     YES
 Maximum Displacement     0.000998     0.001800     YES
 RMS     Displacement     0.000508     0.001200     YES
 Predicted change in Energy=-4.540212D-07
 Optimization completed.
    -- Stationary point found.
                           ----------------------------
                           !   Optimized Parameters   !
                           ! (Angstroms and Degrees)  !
 --------------------------                            --------------------------
 ! Name  Definition              Value          Derivative Info.                !
 --------------------------------------------------------------------------------
 ! R1    R(1,2)                  1.3561         -DE/DX =    0.0003              !
 ! R2    R(2,3)                  1.5205         -DE/DX =   -0.0001              !
 ! R3    R(3,4)                  1.09           -DE/DX =   -0.0002              !
 ! R4    R(3,5)                  1.0877         -DE/DX =   -0.0001              !
 ! R5    R(3,6)                  1.09           -DE/DX =   -0.0002              !
 ! A1    A(1,2,3)              109.5688         -DE/DX =    0.0                 !
 ! A2    A(2,3,4)              110.2499         -DE/DX =    0.0001              !
 ! A3    A(2,3,5)              108.0254         -DE/DX =    0.0002              !
 ! A4    A(2,3,6)              110.2499         -DE/DX =    0.0001              !
 ! A5    A(4,3,5)              109.5095         -DE/DX =   -0.0001              !
 ! A6    A(4,3,6)              109.2768         -DE/DX =   -0.0001              !
 ! A7    A(5,3,6)              109.5095         -DE/DX =   -0.0001              !
 ! D1    D(1,2,3,4)             60.3708         -DE/DX =    0.0                 !
 ! D2    D(1,2,3,5)           -179.9999         -DE/DX =    0.0                 !
 ! D3    D(1,2,3,6)            -60.3706         -DE/DX =    0.0                 !
 --------------------------------------------------------------------------------
 GradGradGradGradGradGradGradGradGradGradGradGradGradGradGradGradGradGrad

                          Input orientation:                          
 ---------------------------------------------------------------------
 Center     Atomic      Atomic             Coordinates (Angstroms)
 Number     Number       Type             X           Y           Z
 ---------------------------------------------------------------------
      1          7           0        0.933399    0.353915   -0.211114
      2          7           0       -0.415734    0.490785   -0.208734
      3          6           0       -1.067021   -0.882362   -0.256447
      4          1           0       -0.773257   -1.469691    0.613554
      5          1           0       -2.145826   -0.743486   -0.253546
      6          1           0       -0.770268   -1.409369   -1.163285
 ---------------------------------------------------------------------
                    Distance matrix (angstroms):
                    1          2          3          4          5
     1  N    0.000000
     2  N    1.356060   0.000000
     3  C    2.352046   1.520521   0.000000
     4  H    2.630265   2.155794   1.090025   0.000000
     5  H    3.269208   2.125713   1.087711   1.778535   0.000000
     6  H    2.630263   2.155794   1.090025   1.777865   1.778535
                    6
     6  H    0.000000
 Symmetry turned off by external request.
 Stoichiometry    CH3N2(2)
 Framework group  C1[X(CH3N2)]
 Deg. of freedom    12
 Full point group                 C1      NOp   1
 Rotational constants (GHZ):          52.9238054          11.2671904           9.8672757

 **********************************************************************

            Population analysis using the SCF density.

 **********************************************************************

 Alpha  occ. eigenvalues --  -15.40089 -15.38062 -11.10314  -1.25688  -0.98010
 Alpha  occ. eigenvalues --   -0.75977  -0.59816  -0.57862  -0.55484  -0.48322
 Alpha  occ. eigenvalues --   -0.46165  -0.32953
 Alpha virt. eigenvalues --    0.29254   0.57653   0.63576   0.68872   0.70652
 Alpha virt. eigenvalues --    0.73993
  Beta  occ. eigenvalues --  -15.40525 -15.35596 -11.09669  -1.23194  -0.92356
  Beta  occ. eigenvalues --   -0.71578  -0.60365  -0.56929  -0.48492  -0.44341
  Beta  occ. eigenvalues --   -0.40057
  Beta virt. eigenvalues --    0.31153   0.32849   0.57177   0.65550   0.68322
  Beta virt. eigenvalues --    0.70724   0.76005
          Condensed to atoms (all electrons):
               1          2          3          4          5          6
     1  N    6.762966   0.282095  -0.029572  -0.002241   0.001243  -0.002241
     2  N    0.282095   6.614486   0.271492  -0.014639  -0.019660  -0.014639
     3  C   -0.029572   0.271492   4.739972   0.379236   0.384735   0.379236
     4  H   -0.002241  -0.014639   0.379236   0.594064  -0.020947  -0.019942
     5  H    0.001243  -0.019660   0.384735  -0.020947   0.588038  -0.020947
     6  H   -0.002241  -0.014639   0.379236  -0.019942  -0.020947   0.594064
          Atomic-Atomic Spin Densities.
               1          2          3          4          5          6
     1  N    1.968968  -0.036720  -0.016306   0.000274   0.000180   0.000274
     2  N   -0.036720  -1.039421   0.014316   0.004774   0.001423   0.004774
     3  C   -0.016306   0.014316   0.232310  -0.005680  -0.003993  -0.005680
     4  H    0.000274   0.004774  -0.005680  -0.038186   0.000995   0.003694
     5  H    0.000180   0.001423  -0.003993   0.000995  -0.012126   0.000995
     6  H    0.000274   0.004774  -0.005680   0.003694   0.000995  -0.038186
 Mulliken charges and spin densities:
               1          2
     1  N   -0.012248   1.916669
     2  N   -0.119134  -1.050853
     3  C   -0.125098   0.214968
     4  H    0.084471  -0.034129
     5  H    0.087539  -0.012527
     6  H    0.084471  -0.034129
 Sum of Mulliken charges =  -0.00000   1.00000
 Mulliken charges and spin densities with hydrogens summed into heavy atoms:
               1          2
     1  N   -0.012248   1.916669
     2  N   -0.119134  -1.050853
     3  C    0.131383   0.134183
 Electronic spatial extent (au):  <R**2>=            161.5560
 Charge=             -0.0000 electrons
 Dipole moment (field-independent basis, Debye):
    X=             -0.8899    Y=             -1.6349    Z=             -0.0570  Tot=              1.8622
 Quadrupole moment (field-independent basis, Debye-Ang):
   XX=            -17.9211   YY=            -16.9325   ZZ=            -15.8966
   XY=              1.1896   XZ=              0.2370   YZ=              0.3350
 Traceless Quadrupole moment (field-independent basis, Debye-Ang):
   XX=             -1.0044   YY=             -0.0157   ZZ=              1.0201
   XY=              1.1896   XZ=              0.2370   YZ=              0.3350
 Octapole moment (field-independent basis, Debye-Ang**2):
  XXX=             11.5268  YYY=              7.0392  ZZZ=             10.9785  XYY=              5.9820
  XXY=              1.2052  XXZ=              4.0685  XZZ=              5.4721  YZZ=              2.1533
  YYZ=              3.9029  XYZ=             -0.2538
 Hexadecapole moment (field-independent basis, Debye-Ang**3):
 XXXX=            -99.1237 YYYY=            -66.4146 ZZZZ=            -22.9401 XXXY=            -23.2165
 XXXZ=             -3.4419 YYYX=            -22.8464 YYYZ=             -2.5849 ZZZX=             -4.5664
 ZZZY=             -2.2069 XXYY=            -28.7690 XXZZ=            -21.3524 YYZZ=            -13.5822
 XXYZ=             -0.5676 YYXZ=             -1.6275 ZZXY=             -7.5941
 N-N= 6.195398207768D+01 E-N=-4.673522550234D+02  KE= 1.453546329235D+02
                          Isotropic Fermi Contact Couplings
        Atom                 a.u.       MegaHertz       Gauss      10(-4) cm-1
     1  N(14)              0.13591      43.91312      15.66929      14.64784
     2  N(14)             -0.11645     -37.62437     -13.42531     -12.55014
     3  C(13)              0.09946     111.80748      39.89569      37.29496
     4  H(1)              -0.01491     -66.64298     -23.77987     -22.22971
     5  H(1)              -0.00459     -20.51211      -7.31923      -6.84210
     6  H(1)              -0.01491     -66.64277     -23.77980     -22.22964
 --------------------------------------------------------
       Center         ----  Spin Dipole Couplings  ----
                      3XX-RR        3YY-RR        3ZZ-RR
 --------------------------------------------------------
     1   Atom       -1.556421      0.972663      0.583758
     2   Atom        0.754949      0.687272     -1.442221
     3   Atom        0.012063      0.036521     -0.048584
     4   Atom        0.007103     -0.012817      0.005714
     5   Atom        0.019244     -0.011607     -0.007637
     6   Atom        0.007105     -0.014444      0.007340
 --------------------------------------------------------
                        XY            XZ            YZ
 --------------------------------------------------------
     1   Atom        0.165961      0.002039      0.013498
     2   Atom       -0.085613      0.000789      0.072236
     3   Atom        0.072282      0.002556      0.003014
     4   Atom        0.010977      0.000637     -0.012635
     5   Atom       -0.013117     -0.000400     -0.000157
     6   Atom        0.010955      0.000109      0.011302
 --------------------------------------------------------


 ---------------------------------------------------------------------------------
              Anisotropic Spin Dipole Couplings in Principal Axis System
 ---------------------------------------------------------------------------------

       Atom             a.u.   MegaHertz   Gauss  10(-4) cm-1        Axes

              Baa    -1.5673   -60.446   -21.569   -20.163  0.9979 -0.0652 -0.0005
     1 N(14)  Bbb     0.5833    22.496     8.027     7.504 -0.0017 -0.0339  0.9994
              Bcc     0.9840    37.950    13.541    12.659  0.0652  0.9973  0.0340
 
              Baa    -1.4447   -55.718   -19.882   -18.585 -0.0017 -0.0339  0.9994
     2 N(14)  Bbb     0.6308    24.328     8.681     8.115  0.5673  0.8230  0.0289
              Bcc     0.8139    31.390    11.201    10.470  0.8235 -0.5670 -0.0179
 
              Baa    -0.0490    -6.578    -2.347    -2.194  0.7640 -0.6449 -0.0206
     3 C(13)  Bbb    -0.0487    -6.534    -2.331    -2.179 -0.0017 -0.0339  0.9994
              Bcc     0.0977    13.111     4.678     4.373  0.6452  0.7635  0.0270
 
              Baa    -0.0227   -12.109    -4.321    -4.039 -0.3256  0.8612  0.3903
     4 H(1)   Bbb     0.0071     3.793     1.353     1.265  0.7225 -0.0397  0.6903
              Bcc     0.0156     8.316     2.967     2.774  0.6100  0.5068 -0.6092
 
              Baa    -0.0164    -8.771    -3.130    -2.926  0.3452  0.9380  0.0324
     5 H(1)   Bbb    -0.0076    -4.071    -1.453    -1.358 -0.0017 -0.0339  0.9994
              Bcc     0.0241    12.843     4.583     4.284  0.9385 -0.3450 -0.0101
 
              Baa    -0.0227   -12.109    -4.321    -4.039 -0.3244  0.8857 -0.3321
     6 H(1)   Bbb     0.0071     3.793     1.353     1.265  0.7248  0.0071 -0.6890
              Bcc     0.0156     8.316     2.967     2.774  0.6079  0.4642  0.6442
 

 ---------------------------------------------------------------------------------

 1\1\GINC-NODE098\FOpt\UHF\STO-3G\C1H3N2(2)\ROOT\17-Nov-2021\0\\# opt u
 hf/sto-3g nosymm\\stable resonance structure H3CN=-N\\0,2\N,0.93339940
 11,0.3539152577,-0.2111139677\N,-0.4157339542,0.4907852769,-0.20873397
 32\C,-1.0670214656,-0.8823619387,-0.2564467733\H,-0.7732565894,-1.4696
 913928,0.6135537597\H,-2.1458264928,-0.7434859762,-0.2535463471\H,-0.7
 702682991,-1.4093691669,-1.1632849884\\Version=EM64L-G16RevA.03\HF=-14
 6.6040557\S2=1.443734\S2-1=0.\S2A=0.800399\RMSD=7.725e-09\RMSF=1.365e-
 04\Dipole=-0.3500979,-0.6432132,-0.0224253\Quadrupole=-0.7467574,-0.01
 16846,0.7584421,0.884403,0.1761848,0.2490796\PG=C01 [X(C1H3N2)]\\@


 VIRTUE IS LEARNED AT YOUR MOTHER'S KNEE,
 VICES ARE PICKED UP AT SOME OTHER JOINT.
 Job cpu time:       0 days  0 hours  1 minutes 21.4 seconds.
 Elapsed time:       0 days  0 hours  0 minutes 13.4 seconds.
 File lengths (MBytes):  RWF=     72 Int=      0 D2E=      0 Chk=      8 Scr=      8
 Normal termination of Gaussian 16 at Wed Nov 17 11:00:25 2021.
