 Entering Gaussian System, Link 0=g16
 Input=benzene.com
 Output=benzene.log
 Initial command:
 /usr/local/g16reva03/legacy_cpu/g16/l1.exe "/scratch/global/g16/Gau-14591.inp" -scrdir="/scratch/global/g16/"
 Entering Link 1 = /usr/local/g16reva03/legacy_cpu/g16/l1.exe PID=     14592.
  
 Copyright (c) 1988,1990,1992,1993,1995,1998,2003,2009,2016,
            Gaussian, Inc.  All Rights Reserved.
  
 This is part of the Gaussian(R) 16 program.  It is based on
 the Gaussian(R) 09 system (copyright 2009, Gaussian, Inc.),
 the Gaussian(R) 03 system (copyright 2003, Gaussian, Inc.),
 the Gaussian(R) 98 system (copyright 1998, Gaussian, Inc.),
 the Gaussian(R) 94 system (copyright 1995, Gaussian, Inc.),
 the Gaussian 92(TM) system (copyright 1992, Gaussian, Inc.),
 the Gaussian 90(TM) system (copyright 1990, Gaussian, Inc.),
 the Gaussian 88(TM) system (copyright 1988, Gaussian, Inc.),
 the Gaussian 86(TM) system (copyright 1986, Carnegie Mellon
 University), and the Gaussian 82(TM) system (copyright 1983,
 Carnegie Mellon University). Gaussian is a federally registered
 trademark of Gaussian, Inc.
  
 This software contains proprietary and confidential information,
 including trade secrets, belonging to Gaussian, Inc.
  
 This software is provided under written license and may be
 used, copied, transmitted, or stored only in accord with that
 written license.
  
 The following legend is applicable only to US Government
 contracts under FAR:
  
                    RESTRICTED RIGHTS LEGEND
  
 Use, reproduction and disclosure by the US Government is
 subject to restrictions as set forth in subparagraphs (a)
 and (c) of the Commercial Computer Software - Restricted
 Rights clause in FAR 52.227-19.
  
 Gaussian, Inc.
 340 Quinnipiac St., Bldg. 40, Wallingford CT 06492
  
  
 ---------------------------------------------------------------
 Warning -- This program may not be used in any manner that
 competes with the business of Gaussian, Inc. or will provide
 assistance to any competitor of Gaussian, Inc.  The licensee
 of this program is prohibited from giving any competitor of
 Gaussian, Inc. access to this program.  By using this program,
 the user acknowledges that Gaussian, Inc. is engaged in the
 business of creating and licensing software in the field of
 computational chemistry and represents and warrants to the
 licensee that it is not a competitor of Gaussian, Inc. and that
 it will not use this program in any manner prohibited above.
 ---------------------------------------------------------------
  

 Cite this work as:
 Gaussian 16, Revision A.03,
 M. J. Frisch, G. W. Trucks, H. B. Schlegel, G. E. Scuseria, 
 M. A. Robb, J. R. Cheeseman, G. Scalmani, V. Barone, 
 G. A. Petersson, H. Nakatsuji, X. Li, M. Caricato, A. V. Marenich, 
 J. Bloino, B. G. Janesko, R. Gomperts, B. Mennucci, H. P. Hratchian, 
 J. V. Ortiz, A. F. Izmaylov, J. L. Sonnenberg, D. Williams-Young, 
 F. Ding, F. Lipparini, F. Egidi, J. Goings, B. Peng, A. Petrone, 
 T. Henderson, D. Ranasinghe, V. G. Zakrzewski, J. Gao, N. Rega, 
 G. Zheng, W. Liang, M. Hada, M. Ehara, K. Toyota, R. Fukuda, 
 J. Hasegawa, M. Ishida, T. Nakajima, Y. Honda, O. Kitao, H. Nakai, 
 T. Vreven, K. Throssell, J. A. Montgomery, Jr., J. E. Peralta, 
 F. Ogliaro, M. J. Bearpark, J. J. Heyd, E. N. Brothers, K. N. Kudin, 
 V. N. Staroverov, T. A. Keith, R. Kobayashi, J. Normand, 
 K. Raghavachari, A. P. Rendell, J. C. Burant, S. S. Iyengar, 
 J. Tomasi, M. Cossi, J. M. Millam, M. Klene, C. Adamo, R. Cammi, 
 J. W. Ochterski, R. L. Martin, K. Morokuma, O. Farkas, 
 J. B. Foresman, and D. J. Fox, Gaussian, Inc., Wallingford CT, 2016.
 
 ******************************************
 Gaussian 16:  EM64L-G16RevA.03 25-Dec-2016
                 7-Dec-2021 
 ******************************************
 %chk=benzene.chk
 ------------------------------------------------
 # uhf/sto-3g output=matrix scf=conven int=noraff
 ------------------------------------------------
 1/38=1,172=1/1;
 2/12=2,17=6,18=5,40=1/2;
 3/6=3,25=20,28=1,30=1,116=2/1,2,3,8,20;
 4//1;
 5/5=1,29=1/2;
 6/7=2,8=2,9=2,10=2,28=1/1;
 99/5=1,6=100000,9=1/99;
 -------
 Benzene
 -------
 Symbolic Z-matrix:
 Charge =  0 Multiplicity = 1
 C
 C                    1    B1
 C                    2    B2       1    A1
 C                    3    B3       2    A2       1    D1       0
 C                    4    B4       3    A3       2    D2       0
 C                    1    B5       2    A4       3    D3       0
 H                    1    B6       6    A5       5    D4       0
 H                    2    B7       1    A6       6    D5       0
 H                    3    B8       2    A7       1    D6       0
 H                    4    B9       3    A8       2    D7       0
 H                    5    B10      4    A9       3    D8       0
 H                    6    B11      1    A10      2    D9       0
       Variables:
  B1                    1.39516                  
  B2                    1.39471                  
  B3                    1.39543                  
  B4                    1.39483                  
  B5                    1.39483                  
  B6                    1.09961                  
  B7                    1.09966                  
  B8                    1.09968                  
  B9                    1.09968                  
  B10                   1.09976                  
  B11                   1.0996                   
  A1                  120.00863                  
  A2                  119.99416                  
  A3                  119.99399                  
  A4                  119.99846                  
  A5                  120.00432                  
  A6                  119.98077                  
  A7                  120.01279                  
  A8                  119.98114                  
  A9                  120.01134                  
  A10                 120.008                    
  D1                   -0.05684                  
  D2                    0.03411                  
  D3                    0.03235                  
  D4                 -179.97984                  
  D5                  179.95325                  
  D6                  179.96185                  
  D7                 -179.99644                  
  D8                 -179.99951                  
  D9                  179.98918                  
 
                          Input orientation:                          
 ---------------------------------------------------------------------
 Center     Atomic      Atomic             Coordinates (Angstroms)
 Number     Number       Type             X           Y           Z
 ---------------------------------------------------------------------
      1          6           0        0.000000    0.000000    0.000000
      2          6           0        0.000000    0.000000    1.395160
      3          6           0        1.207751    0.000000    2.092698
      4          6           0        2.416260   -0.001199    1.395044
      5          6           0        2.416182   -0.001678    0.000219
      6          6           0        1.207976   -0.000682   -0.697382
      7          1           0       -0.952317    0.000450   -0.549759
      8          1           0       -0.952513    0.001315    1.944668
      9          1           0        1.207831    0.000634    3.192378
     10          1           0        3.368403   -0.001258    1.945244
     11          1           0        3.368463   -0.002631   -0.549903
     12          1           0        1.208159   -0.000862   -1.796986
 ---------------------------------------------------------------------
                    Distance matrix (angstroms):
                    1          2          3          4          5
     1  C    0.000000
     2  C    1.395160   0.000000
     3  C    2.416205   1.394712   0.000000
     4  C    2.790065   2.416260   1.395427   0.000000
     5  C    2.416183   2.789946   2.416356   1.394825   0.000000
     6  C    1.394829   2.416183   2.790080   2.416236   1.395138
     7  H    1.099610   2.165553   3.412986   3.889675   3.413102
     8  H    2.165414   1.099655   2.165330   3.413316   3.889601
     9  H    3.413229   2.165375   1.099680   2.165806   3.413209
    10  H    3.889745   3.413024   2.165678   1.099680   2.165606
    11  H    3.413055   3.889707   3.413506   2.165528   1.099761
    12  H    2.165365   3.413128   3.889684   3.412999   2.165471
                    6          7          8          9         10
     6  C    0.000000
     7  H    2.165331   0.000000
     8  H    3.412938   2.494427   0.000000
     9  H    3.889760   4.320860   2.494768   0.000000
    10  H    3.413344   4.989355   4.320917   2.494678   0.000000
    11  H    2.165516   4.320781   4.989362   4.321228   2.495147
    12  H    1.099604   2.494641   4.320704   4.989364   4.320988
                   11         12
    11  H    0.000000
    12  H    2.494420   0.000000
 Stoichiometry    C6H6
 Framework group  C1[X(C6H6)]
 Deg. of freedom    30
 Full point group                 C1      NOp   1
 Largest Abelian subgroup         C1      NOp   1
 Largest concise Abelian subgroup C1      NOp   1
                         Standard orientation:                         
 ---------------------------------------------------------------------
 Center     Atomic      Atomic             Coordinates (Angstroms)
 Number     Number       Type             X           Y           Z
 ---------------------------------------------------------------------
      1          6           0       -0.176732   -1.383750    0.000005
      2          6           0        1.110097   -0.844730   -0.000364
      3          6           0        1.286859    0.538735    0.000194
      4          6           0        0.176468    1.383868   -0.000075
      5          6           0       -1.110022    0.844906   -0.000185
      6          6           0       -1.286665   -0.539004    0.000252
      7          1           0       -0.315876   -2.474521    0.000015
      8          1           0        1.984941   -1.510981    0.000218
      9          1           0        2.301120    0.963670    0.000537
     10          1           0        0.316086    2.474649    0.000306
     11          1           0       -1.985342    1.510705   -0.000405
     12          1           0       -2.300958   -0.963667    0.000364
 ---------------------------------------------------------------------
 Rotational constants (GHZ):           5.6865651           5.6862640           2.8432074
 Standard basis: STO-3G (5D, 7F)
 There are    36 symmetry adapted cartesian basis functions of A   symmetry.
 There are    36 symmetry adapted basis functions of A   symmetry.
    36 basis functions,   108 primitive gaussians,    36 cartesian basis functions
    21 alpha electrons       21 beta electrons
       nuclear repulsion energy       203.0307492911 Hartrees.
 NAtoms=   12 NActive=   12 NUniq=   12 SFac= 1.00D+00 NAtFMM=   60 NAOKFM=F Big=F
 Integral buffers will be    131072 words long.
 Regular integral format.
 Two-electron integral symmetry is turned on.
 One-electron integrals computed using PRISM.
 NBasis=    36 RedAO= T EigKep=  1.72D-01  NBF=    36
 NBsUse=    36 1.00D-06 EigRej= -1.00D+00 NBFU=    36
 Enter DskPsm, NBasis=  36 NBas6D=  36 NShell=  18 IDoSP=4.
 Out2e will use a cutoff of  1.00D-10
 FoFCou: FMM=F IPFlag=           0 FMFlag=           0 FMFlg1=           0
         NFxFlg=           0 DoJE=F BraDBF=F KetDBF=F FulRan=T
         wScrn=  0.000000 ICntrl=       600 IOpCl=  9 I1Cent=           0 NGrid=           0
         NMat0=    0 NMatS0=      0 NMatT0=    0 NMatD0=    0 NMtDS0=    0 NMtDT0=    0
 Petite list used in FoFCou.
       210830 integrals produced for a total of       210830.
 ExpMin= 1.69D-01 ExpMax= 7.16D+01 ExpMxC= 7.16D+01 IAcc=3 IRadAn=         5 AccDes= 0.00D+00
 Harris functional with IExCor=  205 and IRadAn=       5 diagonalized for initial guess.
 HarFok:  IExCor=  205 AccDes= 0.00D+00 IRadAn=         5 IDoV= 1 UseB2=F ITyADJ=14
 ICtDFT=  3500011 ScaDFX=  1.000000  1.000000  1.000000  1.000000
 FoFCou: FMM=F IPFlag=           0 FMFlag=      100000 FMFlg1=           0
         NFxFlg=           0 DoJE=T BraDBF=F KetDBF=T FulRan=T
         wScrn=  0.000000 ICntrl=       500 IOpCl=  0 I1Cent=   200000004 NGrid=           0
         NMat0=    1 NMatS0=      1 NMatT0=    0 NMatD0=    1 NMtDS0=    0 NMtDT0=    0
 Petite list used in FoFCou.
 Initial guess <Sx>= 0.0000 <Sy>= 0.0000 <Sz>= 0.0000 <S**2>=-0.0000 S=-0.0000
 Requested convergence on RMS density matrix=1.00D-08 within 128 cycles.
 Requested convergence on MAX density matrix=1.00D-06.
 Requested convergence on             energy=1.00D-06.
 No special actions if energy rises.
 SCF Done:  E(UHF) =  -227.889409905     A.U. after   10 cycles
            NFock= 10  Conv=0.25D-08     -V/T= 2.0088
 <Sx>= 0.0000 <Sy>= 0.0000 <Sz>= 0.0000 <S**2>=-0.0000 S=-0.0000
 <L.S>= 0.000000000000E+00
 Annihilation of the first spin contaminant:
 S**2 before annihilation    -0.0000,   after    -0.0000

 **********************************************************************

            Population analysis using the SCF density.

 **********************************************************************

 Orbital symmetries:
 Alpha Orbitals:
       Occupied  (A) (A) (A) (A) (A) (A) (A) (A) (A) (A) (A) (A)
                 (A) (A) (A) (A) (A) (A) (A) (A) (A)
       Virtual   (A) (A) (A) (A) (A) (A) (A) (A) (A) (A) (A) (A)
                 (A) (A) (A)
 Beta  Orbitals:
       Occupied  (A) (A) (A) (A) (A) (A) (A) (A) (A) (A) (A) (A)
                 (A) (A) (A) (A) (A) (A) (A) (A) (A)
       Virtual   (A) (A) (A) (A) (A) (A) (A) (A) (A) (A) (A) (A)
                 (A) (A) (A)
 The electronic state is 1-A.
 Alpha  occ. eigenvalues --  -11.02930 -11.02930 -11.02927 -11.02894 -11.02894
 Alpha  occ. eigenvalues --  -11.02880  -1.08912  -0.95262  -0.95257  -0.76318
 Alpha  occ. eigenvalues --   -0.76312  -0.65724  -0.58760  -0.55243  -0.53041
 Alpha  occ. eigenvalues --   -0.53039  -0.45572  -0.42996  -0.42987  -0.27941
 Alpha  occ. eigenvalues --   -0.27934
 Alpha virt. eigenvalues --    0.26925   0.26934   0.50428   0.56473   0.63647
 Alpha virt. eigenvalues --    0.63660   0.70674   0.72600   0.72607   0.87495
 Alpha virt. eigenvalues --    0.87504   0.89400   0.89417   1.08778   1.14437
  Beta  occ. eigenvalues --  -11.02930 -11.02930 -11.02927 -11.02894 -11.02894
  Beta  occ. eigenvalues --  -11.02880  -1.08912  -0.95262  -0.95257  -0.76318
  Beta  occ. eigenvalues --   -0.76312  -0.65724  -0.58760  -0.55243  -0.53041
  Beta  occ. eigenvalues --   -0.53039  -0.45572  -0.42996  -0.42987  -0.27941
  Beta  occ. eigenvalues --   -0.27934
  Beta virt. eigenvalues --    0.26925   0.26934   0.50428   0.56473   0.63647
  Beta virt. eigenvalues --    0.63660   0.70674   0.72600   0.72607   0.87495
  Beta virt. eigenvalues --    0.87504   0.89400   0.89417   1.08778   1.14437
          Condensed to atoms (all electrons):
               1          2          3          4          5          6
     1  C    4.774907   0.506575  -0.030211  -0.011302  -0.030216   0.506927
     2  C    0.506575   4.774880   0.506979  -0.030213  -0.011301  -0.030217
     3  C   -0.030211   0.506979   4.774933   0.506480  -0.030205  -0.011300
     4  C   -0.011302  -0.030213   0.506480   4.774951   0.506946  -0.030211
     5  C   -0.030216  -0.011301  -0.030205   0.506946   4.774886   0.506582
     6  C    0.506927  -0.030217  -0.011300  -0.030211   0.506582   4.774908
     7  H    0.391148  -0.025058   0.001335   0.000028   0.001336  -0.025064
     8  H   -0.025069   0.391134  -0.025062   0.001336   0.000028   0.001336
     9  H    0.001336  -0.025061   0.391129  -0.025049   0.001334   0.000028
    10  H    0.000028   0.001335  -0.025060   0.391124  -0.025048   0.001335
    11  H    0.001336   0.000028   0.001335  -0.025054   0.391110  -0.025065
    12  H   -0.025061   0.001336   0.000028   0.001336  -0.025063   0.391148
               7          8          9         10         11         12
     1  C    0.391148  -0.025069   0.001336   0.000028   0.001336  -0.025061
     2  C   -0.025058   0.391134  -0.025061   0.001335   0.000028   0.001336
     3  C    0.001335  -0.025062   0.391129  -0.025060   0.001335   0.000028
     4  C    0.000028   0.001336  -0.025049   0.391124  -0.025054   0.001336
     5  C    0.001336   0.000028   0.001334  -0.025048   0.391110  -0.025063
     6  C   -0.025064   0.001336   0.000028   0.001335  -0.025065   0.391148
     7  H    0.602983  -0.003526  -0.000030   0.000002  -0.000030  -0.003526
     8  H   -0.003526   0.603021  -0.003526  -0.000030   0.000002  -0.000030
     9  H   -0.000030  -0.003526   0.602992  -0.003521  -0.000030   0.000002
    10  H    0.000002  -0.000030  -0.003521   0.602993  -0.003522  -0.000030
    11  H   -0.000030   0.000002  -0.000030  -0.003522   0.603039  -0.003526
    12  H   -0.003526  -0.000030   0.000002  -0.000030  -0.003526   0.602985
          Atomic-Atomic Spin Densities.
               1          2          3          4          5          6
     1  C    0.000000   0.000000   0.000000   0.000000   0.000000   0.000000
     2  C    0.000000   0.000000   0.000000   0.000000   0.000000   0.000000
     3  C    0.000000   0.000000   0.000000   0.000000   0.000000   0.000000
     4  C    0.000000   0.000000   0.000000   0.000000   0.000000   0.000000
     5  C    0.000000   0.000000   0.000000   0.000000   0.000000   0.000000
     6  C    0.000000   0.000000   0.000000   0.000000   0.000000   0.000000
     7  H    0.000000   0.000000   0.000000   0.000000   0.000000   0.000000
     8  H    0.000000   0.000000   0.000000   0.000000   0.000000   0.000000
     9  H    0.000000   0.000000   0.000000   0.000000   0.000000   0.000000
    10  H    0.000000   0.000000   0.000000   0.000000   0.000000   0.000000
    11  H    0.000000   0.000000   0.000000   0.000000   0.000000   0.000000
    12  H    0.000000   0.000000   0.000000   0.000000   0.000000   0.000000
               7          8          9         10         11         12
     1  C    0.000000   0.000000   0.000000   0.000000   0.000000   0.000000
     2  C    0.000000   0.000000   0.000000   0.000000   0.000000   0.000000
     3  C    0.000000   0.000000   0.000000   0.000000   0.000000   0.000000
     4  C    0.000000   0.000000   0.000000   0.000000   0.000000   0.000000
     5  C    0.000000   0.000000   0.000000   0.000000   0.000000   0.000000
     6  C    0.000000   0.000000   0.000000   0.000000   0.000000   0.000000
     7  H    0.000000   0.000000   0.000000   0.000000   0.000000   0.000000
     8  H    0.000000   0.000000   0.000000   0.000000   0.000000   0.000000
     9  H    0.000000   0.000000   0.000000   0.000000   0.000000   0.000000
    10  H    0.000000   0.000000   0.000000   0.000000   0.000000   0.000000
    11  H    0.000000   0.000000   0.000000   0.000000   0.000000   0.000000
    12  H    0.000000   0.000000   0.000000   0.000000   0.000000   0.000000
 Mulliken charges and spin densities:
               1          2
     1  C   -0.060397   0.000000
     2  C   -0.060416   0.000000
     3  C   -0.060381   0.000000
     4  C   -0.060370   0.000000
     5  C   -0.060389   0.000000
     6  C   -0.060408   0.000000
     7  H    0.060403   0.000000
     8  H    0.060388   0.000000
     9  H    0.060396   0.000000
    10  H    0.060394   0.000000
    11  H    0.060378   0.000000
    12  H    0.060403   0.000000
 Sum of Mulliken charges =  -0.00000   0.00000
 Mulliken charges and spin densities with hydrogens summed into heavy atoms:
               1          2
     1  C    0.000006   0.000000
     2  C   -0.000029   0.000000
     3  C    0.000015   0.000000
     4  C    0.000024   0.000000
     5  C   -0.000011   0.000000
     6  C   -0.000006   0.000000
 Electronic spatial extent (au):  <R**2>=            455.9779
 Charge=             -0.0000 electrons
 Dipole moment (field-independent basis, Debye):
    X=              0.0000    Y=              0.0001    Z=              0.0004  Tot=              0.0004
 Quadrupole moment (field-independent basis, Debye-Ang):
   XX=            -31.1580   YY=            -31.1582   ZZ=            -35.1303
   XY=              0.0007   XZ=              0.0010   YZ=             -0.0000
 Traceless Quadrupole moment (field-independent basis, Debye-Ang):
   XX=              1.3242   YY=              1.3240   ZZ=             -2.6482
   XY=              0.0007   XZ=              0.0010   YZ=             -0.0000
 Octapole moment (field-independent basis, Debye-Ang**2):
  XXX=             -0.0031  YYY=             -0.0011  ZZZ=              0.0001  XYY=              0.0033
  XXY=              0.0022  XXZ=              0.0020  XZZ=             -0.0000  YZZ=             -0.0002
  YYZ=              0.0017  XYZ=              0.0003
 Hexadecapole moment (field-independent basis, Debye-Ang**3):
 XXXX=           -260.5767 YYYY=           -260.5657 ZZZZ=            -28.5483 XXXY=              0.0016
 XXXZ=              0.0055 YYYX=              0.0036 YYYZ=              0.0020 ZZZX=              0.0003
 ZZZY=             -0.0000 XXYY=            -86.8582 XXZZ=            -53.9934 YYZZ=            -53.9910
 XXYZ=             -0.0023 YYXZ=              0.0030 ZZXY=              0.0002
 N-N= 2.030307492911D+02 E-N=-9.368915580206D+02  KE= 2.259062405992D+02
                          Isotropic Fermi Contact Couplings
        Atom                 a.u.       MegaHertz       Gauss      10(-4) cm-1
     1  C(13)              0.00000       0.00000       0.00000       0.00000
     2  C(13)              0.00000       0.00000       0.00000       0.00000
     3  C(13)              0.00000       0.00000       0.00000       0.00000
     4  C(13)              0.00000       0.00000       0.00000       0.00000
     5  C(13)              0.00000       0.00000       0.00000       0.00000
     6  C(13)              0.00000       0.00000       0.00000       0.00000
     7  H(1)               0.00000       0.00000       0.00000       0.00000
     8  H(1)               0.00000       0.00000       0.00000       0.00000
     9  H(1)               0.00000       0.00000       0.00000       0.00000
    10  H(1)               0.00000       0.00000       0.00000       0.00000
    11  H(1)               0.00000       0.00000       0.00000       0.00000
    12  H(1)               0.00000       0.00000       0.00000       0.00000
 --------------------------------------------------------
       Center         ----  Spin Dipole Couplings  ----
                      3XX-RR        3YY-RR        3ZZ-RR
 --------------------------------------------------------
     1   Atom        0.000000      0.000000      0.000000
     2   Atom        0.000000      0.000000      0.000000
     3   Atom        0.000000      0.000000      0.000000
     4   Atom        0.000000      0.000000      0.000000
     5   Atom        0.000000      0.000000      0.000000
     6   Atom        0.000000      0.000000      0.000000
     7   Atom        0.000000      0.000000      0.000000
     8   Atom        0.000000      0.000000      0.000000
     9   Atom        0.000000      0.000000      0.000000
    10   Atom        0.000000      0.000000      0.000000
    11   Atom        0.000000      0.000000      0.000000
    12   Atom        0.000000      0.000000      0.000000
 --------------------------------------------------------
                        XY            XZ            YZ
 --------------------------------------------------------
     1   Atom        0.000000      0.000000      0.000000
     2   Atom        0.000000      0.000000      0.000000
     3   Atom        0.000000      0.000000      0.000000
     4   Atom        0.000000      0.000000      0.000000
     5   Atom        0.000000      0.000000      0.000000
     6   Atom        0.000000      0.000000      0.000000
     7   Atom        0.000000      0.000000      0.000000
     8   Atom        0.000000      0.000000      0.000000
     9   Atom        0.000000      0.000000      0.000000
    10   Atom        0.000000      0.000000      0.000000
    11   Atom        0.000000      0.000000      0.000000
    12   Atom        0.000000      0.000000      0.000000
 --------------------------------------------------------


 ---------------------------------------------------------------------------------
              Anisotropic Spin Dipole Couplings in Principal Axis System
 ---------------------------------------------------------------------------------

       Atom             a.u.   MegaHertz   Gauss  10(-4) cm-1        Axes

              Baa     0.0000     0.000     0.000     0.000  1.0000  0.0000  0.0000
     1 C(13)  Bbb     0.0000     0.000     0.000     0.000 -0.0000  1.0000  0.0000
              Bcc     0.0000     0.000     0.000     0.000  0.0000  0.0000  1.0000
 
              Baa     0.0000     0.000     0.000     0.000  1.0000  0.0000  0.0000
     2 C(13)  Bbb     0.0000     0.000     0.000     0.000 -0.0000  1.0000  0.0000
              Bcc     0.0000     0.000     0.000     0.000  0.0000  0.0000  1.0000
 
              Baa     0.0000     0.000     0.000     0.000  1.0000  0.0000  0.0000
     3 C(13)  Bbb     0.0000     0.000     0.000     0.000 -0.0000  1.0000  0.0000
              Bcc     0.0000     0.000     0.000     0.000  0.0000  0.0000  1.0000
 
              Baa     0.0000     0.000     0.000     0.000  1.0000  0.0000  0.0000
     4 C(13)  Bbb     0.0000     0.000     0.000     0.000 -0.0000  1.0000  0.0000
              Bcc     0.0000     0.000     0.000     0.000  0.0000  0.0000  1.0000
 
              Baa     0.0000     0.000     0.000     0.000  1.0000  0.0000  0.0000
     5 C(13)  Bbb     0.0000     0.000     0.000     0.000 -0.0000  1.0000  0.0000
              Bcc     0.0000     0.000     0.000     0.000  0.0000  0.0000  1.0000
 
              Baa     0.0000     0.000     0.000     0.000  1.0000  0.0000  0.0000
     6 C(13)  Bbb     0.0000     0.000     0.000     0.000 -0.0000  1.0000  0.0000
              Bcc     0.0000     0.000     0.000     0.000  0.0000  0.0000  1.0000
 
              Baa     0.0000     0.000     0.000     0.000  1.0000  0.0000  0.0000
     7 H(1)   Bbb     0.0000     0.000     0.000     0.000 -0.0000  1.0000  0.0000
              Bcc     0.0000     0.000     0.000     0.000  0.0000  0.0000  1.0000
 
              Baa     0.0000     0.000     0.000     0.000  1.0000  0.0000  0.0000
     8 H(1)   Bbb     0.0000     0.000     0.000     0.000 -0.0000  1.0000  0.0000
              Bcc     0.0000     0.000     0.000     0.000  0.0000  0.0000  1.0000
 
              Baa     0.0000     0.000     0.000     0.000  1.0000  0.0000  0.0000
     9 H(1)   Bbb     0.0000     0.000     0.000     0.000 -0.0000  1.0000  0.0000
              Bcc     0.0000     0.000     0.000     0.000  0.0000  0.0000  1.0000
 
              Baa     0.0000     0.000     0.000     0.000  1.0000  0.0000  0.0000
    10 H(1)   Bbb     0.0000     0.000     0.000     0.000 -0.0000  1.0000  0.0000
              Bcc     0.0000     0.000     0.000     0.000  0.0000  0.0000  1.0000
 
              Baa     0.0000     0.000     0.000     0.000  1.0000  0.0000  0.0000
    11 H(1)   Bbb     0.0000     0.000     0.000     0.000 -0.0000  1.0000  0.0000
              Bcc     0.0000     0.000     0.000     0.000  0.0000  0.0000  1.0000
 
              Baa     0.0000     0.000     0.000     0.000  1.0000  0.0000  0.0000
    12 H(1)   Bbb     0.0000     0.000     0.000     0.000 -0.0000  1.0000  0.0000
              Bcc     0.0000     0.000     0.000     0.000  0.0000  0.0000  1.0000
 

 ---------------------------------------------------------------------------------

 1\1\GINC-USER2\SP\UHF\STO-3G\C6H6\AMKINY01\07-Dec-2021\0\\# uhf/sto-3g
  output=matrix scf=conven int=noraff\\Benzene\\0,1\C\C,1,1.39516\C,2,1
 .39471206,1,120.00863221\C,3,1.39542701,2,119.99416459,1,-0.05684321,0
 \C,4,1.39482508,3,119.99399231,2,0.03411439,0\C,1,1.39482907,2,119.998
 4568,3,0.03234809,0\H,1,1.09961031,6,120.00431986,5,-179.97984142,0\H,
 2,1.0996553,1,119.98077039,6,179.95324796,0\H,3,1.09968019,2,120.01279
 489,1,179.96185208,0\H,4,1.09968011,3,119.98114211,2,-179.99643617,0\H
 ,5,1.09976099,4,120.01134336,3,-179.99951388,0\H,6,1.09960403,1,120.00
 799702,2,179.98917535,0\\Version=EM64L-G16RevA.03\State=1-A\HF=-227.88
 94099\S2=0.\S2-1=0.\S2A=0.\RMSD=2.497e-09\Dipole=0.0000442,0.0001411,0
 .0000363\Quadrupole=0.9839979,-1.968848,0.9848501,-0.0021264,0.0002985
 ,0.0014582\PG=C01 [X(C6H6)]\\@


 UNLESS WE CHANGE DIRECTIONS, WE WILL WIND UP WHERE WE ARE HEADED.
     -- CONFUCIUS

 Writing WrtUnf unformatted file "ubenzene.mat"
 Gaussian matrix elements                                         Version   2 NLab=11 Len12L=8 Len4L=8
 WrtUnf:  Coordinates translated and rotated.
 WrtUnf:  Coordinates match /B/ after translation and rotation.
 Write SHELL TO ATOM MAP                   from file     0 offset           0 length                  18 to matrix element file.
 Write SHELL TYPES                         from file     0 offset           0 length                  18 to matrix element file.
 Write NUMBER OF PRIMITIVES PER SHELL      from file     0 offset           0 length                  18 to matrix element file.
 Write PRIMITIVE EXPONENTS                 from file     0 offset           0 length                  54 to matrix element file.
 Write CONTRACTION COEFFICIENTS            from file     0 offset           0 length                  54 to matrix element file.
 Write P(S=P) CONTRACTION COEFFICIENTS     from file     0 offset           0 length                  54 to matrix element file.
 Write COORDINATES OF EACH SHELL           from file     0 offset           0 length                  54 to matrix element file.
 Write BONDS PER ATOM                      from file     0 offset           0 length                  12 to matrix element file.
 Write BONDED ATOMS                        from file     0 offset           0 length                  24 to matrix element file.
 Write BOND TYPES                          from file     0 offset           0 length                  24 to matrix element file.
 Write GAUSSIAN SCALARS                    from file   501 offset           0 to matrix element file.
 Write INTEGER ISO                         from file     0 offset           0 length                  12 to matrix element file.
 Write INTEGER SPIN                        from file     0 offset           0 length                  12 to matrix element file.
 Write REAL ZEFFECTIVE                     from file     0 offset           0 length                  12 to matrix element file.
 Write REAL GFACTOR                        from file     0 offset           0 length                  12 to matrix element file.
 Write REAL ZNUCLEAR                       from file     0 offset           0 length                  12 to matrix element file.
 Write NUCLEAR GRADIENT                    from file 10584 offset           0 length                  36 to matrix element file.
 Array NUCLEAR FORCE CONSTANTS              on  file 10585 does not exist.
 Write ELECTRIC DIPOLE MOMENT              from file     0 offset           0 length                   3 to matrix element file.
 Write OVERLAP                             from file   514 offset           0 length                 666 to matrix element file.
 Write CORE HAMILTONIAN ALPHA              from file   515 offset           0 length                 666 to matrix element file.
 Write CORE HAMILTONIAN BETA               from file   515 offset         666 length                 666 to matrix element file.
 Write KINETIC ENERGY                      from file   516 offset           0 length                 666 to matrix element file.
 Write ORTHOGONAL BASIS                    from file   685 offset           0 length                1296 to matrix element file.
 Write DIPOLE INTEGRALS                    from file   518 offset           0 length                1998 to matrix element file.
 Write DIP VEL INTEGRALS                   from file   572 offset           0 length                1998 to matrix element file.
 Write R X DEL INTEGRALS                   from file   572 offset        1998 length                1998 to matrix element file.
 Write ALPHA ORBITAL ENERGIES              from file     0 offset           0 length                  36 to matrix element file.
 Write BETA ORBITAL ENERGIES               from file     0 offset           0 length                  36 to matrix element file.
 Write ALPHA MO COEFFICIENTS               from file 10524 offset           0 length                1296 to matrix element file.
 Write BETA MO COEFFICIENTS                from file 10526 offset           0 length                1296 to matrix element file.
 Write ALPHA DENSITY MATRIX                from file 10528 offset           0 length                 666 to matrix element file.
 Write BETA DENSITY MATRIX                 from file 10530 offset           0 length                 666 to matrix element file.
 Write ALPHA SCF DENSITY MATRIX            from file 10528 offset           0 length                 666 to matrix element file.
 Write BETA SCF DENSITY MATRIX             from file 10530 offset           0 length                 666 to matrix element file.
 Write ALPHA FOCK MATRIX                   from file 10536 offset           0 length                 666 to matrix element file.
 Write BETA FOCK MATRIX                    from file 10538 offset           0 length                 666 to matrix element file.
 Write REGULAR 2E INTEGRALS                to matrix element file, NR=1 ITotal=      210830.
 Job cpu time:       0 days  0 hours  0 minutes  3.8 seconds.
 Elapsed time:       0 days  0 hours  0 minutes  4.6 seconds.
 File lengths (MBytes):  RWF=     72 Int=      4 D2E=      0 Chk=      8 Scr=      8
 Normal termination of Gaussian 16 at Tue Dec  7 12:14:07 2021.
